<?xml version="1.0" encoding="UTF-8"?>

<!-- generated on 2025-04-14 03:01:32 by Eclipse SUMO sumo Version 1.21.0
<sumoConfiguration xmlns:xsi="http://www.w3.org/2001/XMLSchema-instance" xsi:noNamespaceSchemaLocation="http://sumo.dlr.de/xsd/sumoConfiguration.xsd">

    <input>
        <net-file value="C:\Users\18576\Sumo\grok_version\input_sources\highway_merge.net.xml"/>
        <route-files value="C:\Users\18576\Sumo\grok_version\input_sources\routes.rou.xml"/>
    </input>

    <output>
        <tripinfo-output value="C:\Users\18576\Sumo\grok_version\input_sources\tripinfo.xml"/>
    </output>

    <time>
        <begin value="0"/>
        <end value="5000"/>
        <step-length value="0.1"/>
    </time>

    <processing>
        <extrapolate-departpos value="true"/>
        <route-steps value="100"/>
        <ignore-route-errors value="true"/>
        <collision.action value="warn"/>
        <collision.stoptime value="1"/>
        <collision.mingap-factor value="0.1"/>
        <time-to-teleport value="-1"/>
    </processing>

    <report>
        <verbose value="true"/>
        <log value="C:\Users\18576\Sumo\grok_version\input_sources\simulation.log"/>
        <no-step-log value="false"/>
    </report>

    <traci_server>
        <remote-port value="1245"/>
    </traci_server>

    <gui_only>
        <quit-on-end value="true"/>
        <start value="false"/>
    </gui_only>

</sumoConfiguration>
-->

<tripinfos xmlns:xsi="http://www.w3.org/2001/XMLSchema-instance" xsi:noNamespaceSchemaLocation="http://sumo.dlr.de/xsd/tripinfo_file.xsd">
    <tripinfo id="main_flow.0" depart="0.10" departLane="wm_0" departPos="5.10" departSpeed="15.00" departDelay="0.00" arrival="26.50" arrivalLane="ce_0" arrivalPos="196.00" arrivalSpeed="15.00" duration="26.40" routeLength="394.90" waitingTime="0.00" waitingCount="0" stopTime="0.00" timeLoss="0.00" rerouteNo="0" devices="tripinfo_main_flow.0" vType="CAV" speedFactor="0.98" vaporized=""/>
    <tripinfo id="main_flow.1" depart="0.50" departLane="wm_0" departPos="5.10" departSpeed="12.73" departDelay="0.00" arrival="27.40" arrivalLane="ce_0" arrivalPos="196.00" arrivalSpeed="15.00" duration="26.90" routeLength="394.90" waitingTime="0.00" waitingCount="0" stopTime="0.00" timeLoss="0.49" rerouteNo="0" devices="tripinfo_main_flow.1" vType="CAV" speedFactor="1.08" vaporized=""/>
    <tripinfo id="main_flow.2" depart="1.10" departLane="wm_0" departPos="5.10" departSpeed="8.40" departDelay="0.30" arrival="29.10" arrivalLane="ce_0" arrivalPos="196.00" arrivalSpeed="14.94" duration="28.00" routeLength="394.90" waitingTime="0.00" waitingCount="0" stopTime="0.00" timeLoss="1.63" rerouteNo="0" devices="tripinfo_main_flow.2" vType="HDV" speedFactor="1.40" vaporized=""/>
    <tripinfo id="main_flow.3" depart="2.00" departLane="wm_0" departPos="5.10" departSpeed="5.75" departDelay="1.00" arrival="30.80" arrivalLane="ce_0" arrivalPos="196.00" arrivalSpeed="14.91" duration="28.80" routeLength="394.90" waitingTime="0.00" waitingCount="0" stopTime="0.00" timeLoss="2.46" rerouteNo="0" devices="tripinfo_main_flow.3" vType="HDV" speedFactor="1.09" vaporized=""/>
    <tripinfo id="ramp_flow.0" depart="1.70" departLane="rm_0" departPos="5.10" departSpeed="10.00" departDelay="0.00" arrival="34.30" arrivalLane="ce_0" arrivalPos="196.00" arrivalSpeed="13.03" duration="32.60" routeLength="405.14" waitingTime="0.00" waitingCount="0" stopTime="0.00" timeLoss="1.57" rerouteNo="0" devices="tripinfo_ramp_flow.0" vType="HDV" speedFactor="0.88" vaporized=""/>
    <tripinfo id="main_flow.4" depart="2.90" departLane="wm_0" departPos="5.10" departSpeed="5.22" departDelay="1.40" arrival="35.20" arrivalLane="ce_0" arrivalPos="196.00" arrivalSpeed="15.00" duration="32.30" routeLength="394.90" waitingTime="0.00" waitingCount="0" stopTime="0.00" timeLoss="5.92" rerouteNo="0" devices="tripinfo_main_flow.4" vType="CAV" speedFactor="1.08" vaporized=""/>
    <tripinfo id="main_flow.5" depart="4.10" departLane="wm_0" departPos="5.10" departSpeed="4.69" departDelay="0.30" arrival="36.80" arrivalLane="ce_0" arrivalPos="196.00" arrivalSpeed="14.92" duration="32.70" routeLength="394.90" waitingTime="0.00" waitingCount="0" stopTime="0.00" timeLoss="6.33" rerouteNo="0" devices="tripinfo_main_flow.5" vType="HDV" speedFactor="1.18" vaporized=""/>
    <tripinfo id="main_flow.6" depart="5.40" departLane="wm_0" departPos="5.10" departSpeed="3.20" departDelay="0.80" arrival="39.40" arrivalLane="ce_0" arrivalPos="196.00" arrivalSpeed="12.66" duration="34.00" routeLength="394.90" waitingTime="0.00" waitingCount="0" stopTime="0.00" timeLoss="2.81" rerouteNo="0" devices="tripinfo_main_flow.6" vType="HDV" speedFactor="0.85" vaporized=""/>
    <tripinfo id="main_flow.7" depart="7.80" departLane="wm_0" departPos="5.10" departSpeed="6.84" departDelay="0.00" arrival="41.20" arrivalLane="ce_0" arrivalPos="196.00" arrivalSpeed="12.72" duration="33.40" routeLength="394.90" waitingTime="0.00" waitingCount="0" stopTime="0.00" timeLoss="2.50" rerouteNo="0" devices="tripinfo_main_flow.7" vType="HDV" speedFactor="0.85" vaporized=""/>
    <tripinfo id="main_flow.8" depart="12.00" departLane="wm_0" departPos="5.10" departSpeed="15.00" departDelay="0.00" arrival="42.80" arrivalLane="ce_0" arrivalPos="196.00" arrivalSpeed="14.99" duration="30.80" routeLength="394.90" waitingTime="0.00" waitingCount="0" stopTime="0.00" timeLoss="4.42" rerouteNo="0" devices="tripinfo_main_flow.8" vType="HDV" speedFactor="1.17" vaporized=""/>
    <tripinfo id="main_flow.9" depart="12.60" departLane="wm_0" departPos="5.10" departSpeed="10.44" departDelay="0.40" arrival="44.40" arrivalLane="ce_0" arrivalPos="196.00" arrivalSpeed="14.87" duration="31.80" routeLength="394.90" waitingTime="0.00" waitingCount="0" stopTime="0.00" timeLoss="5.42" rerouteNo="0" devices="tripinfo_main_flow.9" vType="HDV" speedFactor="1.02" vaporized=""/>
    <tripinfo id="main_flow.10" depart="13.40" departLane="wm_0" departPos="5.10" departSpeed="6.73" departDelay="0.90" arrival="46.00" arrivalLane="ce_0" arrivalPos="196.00" arrivalSpeed="14.94" duration="32.60" routeLength="394.90" waitingTime="0.00" waitingCount="0" stopTime="0.00" timeLoss="6.25" rerouteNo="0" devices="tripinfo_main_flow.10" vType="HDV" speedFactor="1.06" vaporized=""/>
    <tripinfo id="main_flow.11" depart="14.50" departLane="wm_0" departPos="5.10" departSpeed="4.30" departDelay="0.80" arrival="50.30" arrivalLane="ce_0" arrivalPos="196.00" arrivalSpeed="11.59" duration="35.80" routeLength="394.90" waitingTime="0.00" waitingCount="0" stopTime="0.00" timeLoss="2.02" rerouteNo="0" devices="tripinfo_main_flow.11" vType="HDV" speedFactor="0.78" vaporized=""/>
    <tripinfo id="ramp_flow.2" depart="7.10" departLane="rm_0" departPos="5.10" departSpeed="10.00" departDelay="0.00" arrival="53.30" arrivalLane="ce_0" arrivalPos="196.00" arrivalSpeed="15.00" duration="46.20" routeLength="405.14" waitingTime="3.60" waitingCount="10" stopTime="0.00" timeLoss="19.10" rerouteNo="0" devices="tripinfo_ramp_flow.2" vType="CAV" speedFactor="1.12" vaporized=""/>
    <tripinfo id="ramp_flow.4" depart="10.40" departLane="rm_0" departPos="5.10" departSpeed="10.00" departDelay="0.00" arrival="56.50" arrivalLane="ce_0" arrivalPos="196.00" arrivalSpeed="15.00" duration="46.10" routeLength="405.14" waitingTime="0.20" waitingCount="2" stopTime="0.00" timeLoss="18.94" rerouteNo="0" devices="tripinfo_ramp_flow.4" vType="CAV" speedFactor="1.04" vaporized=""/>
    <tripinfo id="ramp_flow.7" depart="15.80" departLane="rm_0" departPos="5.10" departSpeed="10.00" departDelay="0.30" arrival="59.60" arrivalLane="ce_0" arrivalPos="196.00" arrivalSpeed="12.94" duration="43.80" routeLength="405.14" waitingTime="0.00" waitingCount="0" stopTime="0.00" timeLoss="16.69" rerouteNo="0" devices="tripinfo_ramp_flow.7" vType="CAV" speedFactor="1.03" vaporized=""/>
    <tripinfo id="main_flow.12" depart="15.60" departLane="wm_0" departPos="5.10" departSpeed="4.43" departDelay="1.60" arrival="60.60" arrivalLane="ce_0" arrivalPos="196.00" arrivalSpeed="13.80" duration="45.00" routeLength="394.90" waitingTime="0.00" waitingCount="0" stopTime="0.00" timeLoss="18.59" rerouteNo="0" devices="tripinfo_main_flow.12" vType="CAV" speedFactor="1.01" vaporized=""/>
    <tripinfo id="ramp_flow.8" depart="18.00" departLane="rm_0" departPos="5.10" departSpeed="10.00" departDelay="0.00" arrival="62.10" arrivalLane="ce_0" arrivalPos="196.00" arrivalSpeed="14.88" duration="44.10" routeLength="405.14" waitingTime="0.00" waitingCount="0" stopTime="0.00" timeLoss="17.04" rerouteNo="0" devices="tripinfo_ramp_flow.8" vType="HDV" speedFactor="1.24" vaporized=""/>
    <tripinfo id="main_flow.13" depart="16.70" departLane="wm_0" departPos="5.10" departSpeed="5.15" departDelay="0.90" arrival="63.10" arrivalLane="ce_0" arrivalPos="196.00" arrivalSpeed="14.19" duration="46.40" routeLength="394.90" waitingTime="0.00" waitingCount="0" stopTime="0.00" timeLoss="20.04" rerouteNo="0" devices="tripinfo_main_flow.13" vType="CAV" speedFactor="1.13" vaporized=""/>
    <tripinfo id="main_flow.14" depart="17.90" departLane="wm_0" departPos="5.10" departSpeed="3.41" departDelay="2.00" arrival="65.50" arrivalLane="ce_0" arrivalPos="196.00" arrivalSpeed="11.74" duration="47.60" routeLength="394.90" waitingTime="0.00" waitingCount="0" stopTime="0.00" timeLoss="14.18" rerouteNo="0" devices="tripinfo_main_flow.14" vType="HDV" speedFactor="0.79" vaporized=""/>
    <tripinfo id="main_flow.15" depart="19.50" departLane="wm_0" departPos="5.10" departSpeed="3.16" departDelay="2.40" arrival="67.10" arrivalLane="ce_0" arrivalPos="196.00" arrivalSpeed="14.85" duration="47.60" routeLength="394.90" waitingTime="0.00" waitingCount="0" stopTime="0.00" timeLoss="21.27" rerouteNo="0" devices="tripinfo_main_flow.15" vType="HDV" speedFactor="1.31" vaporized=""/>
    <tripinfo id="main_flow.16" depart="20.90" departLane="wm_0" departPos="5.10" departSpeed="4.20" departDelay="0.80" arrival="68.10" arrivalLane="ce_0" arrivalPos="196.00" arrivalSpeed="14.00" duration="47.20" routeLength="394.90" waitingTime="0.00" waitingCount="0" stopTime="0.00" timeLoss="20.83" rerouteNo="0" devices="tripinfo_main_flow.16" vType="CAV" speedFactor="0.97" vaporized=""/>
    <tripinfo id="main_flow.17" depart="22.30" departLane="wm_0" departPos="5.10" departSpeed="3.77" departDelay="0.00" arrival="69.60" arrivalLane="ce_0" arrivalPos="196.00" arrivalSpeed="14.90" duration="47.30" routeLength="394.90" waitingTime="0.00" waitingCount="0" stopTime="0.00" timeLoss="20.97" rerouteNo="0" devices="tripinfo_main_flow.17" vType="HDV" speedFactor="1.04" vaporized=""/>
    <tripinfo id="main_flow.18" depart="24.70" departLane="wm_0" departPos="5.10" departSpeed="6.71" departDelay="0.00" arrival="71.20" arrivalLane="ce_0" arrivalPos="196.00" arrivalSpeed="14.86" duration="46.50" routeLength="394.90" waitingTime="0.00" waitingCount="0" stopTime="0.00" timeLoss="20.14" rerouteNo="0" devices="tripinfo_main_flow.18" vType="HDV" speedFactor="1.20" vaporized=""/>
    <tripinfo id="main_flow.19" depart="25.80" departLane="wm_0" departPos="5.10" departSpeed="3.75" departDelay="0.30" arrival="72.80" arrivalLane="ce_0" arrivalPos="196.00" arrivalSpeed="14.92" duration="47.00" routeLength="394.90" waitingTime="0.00" waitingCount="0" stopTime="0.00" timeLoss="20.64" rerouteNo="0" devices="tripinfo_main_flow.19" vType="HDV" speedFactor="1.06" vaporized=""/>
    <tripinfo id="main_flow.20" depart="28.40" departLane="wm_0" departPos="5.10" departSpeed="6.19" departDelay="0.00" arrival="74.40" arrivalLane="ce_0" arrivalPos="196.00" arrivalSpeed="14.91" duration="46.00" routeLength="394.90" waitingTime="0.00" waitingCount="0" stopTime="0.00" timeLoss="19.66" rerouteNo="0" devices="tripinfo_main_flow.20" vType="HDV" speedFactor="1.13" vaporized=""/>
    <tripinfo id="main_flow.21" depart="29.80" departLane="wm_0" departPos="5.10" departSpeed="3.54" departDelay="0.00" arrival="85.10" arrivalLane="ce_0" arrivalPos="196.00" arrivalSpeed="8.00" duration="55.30" routeLength="394.90" waitingTime="0.00" waitingCount="0" stopTime="0.00" timeLoss="6.65" rerouteNo="0" devices="tripinfo_main_flow.21" vType="HDV" speedFactor="0.54" vaporized=""/>
    <tripinfo id="main_flow.22" depart="33.00" departLane="wm_0" departPos="5.10" departSpeed="6.65" departDelay="0.00" arrival="86.90" arrivalLane="ce_0" arrivalPos="196.00" arrivalSpeed="11.71" duration="53.90" routeLength="394.90" waitingTime="0.00" waitingCount="0" stopTime="0.00" timeLoss="27.55" rerouteNo="0" devices="tripinfo_main_flow.22" vType="HDV" speedFactor="1.04" vaporized=""/>
    <tripinfo id="main_flow.23" depart="34.20" departLane="wm_0" departPos="5.10" departSpeed="2.91" departDelay="0.30" arrival="88.60" arrivalLane="ce_0" arrivalPos="196.00" arrivalSpeed="11.27" duration="54.40" routeLength="394.90" waitingTime="0.00" waitingCount="0" stopTime="0.00" timeLoss="19.41" rerouteNo="0" devices="tripinfo_main_flow.23" vType="HDV" speedFactor="0.75" vaporized=""/>
    <tripinfo id="main_flow.24" depart="36.10" departLane="wm_0" departPos="5.10" departSpeed="1.88" departDelay="1.00" arrival="90.10" arrivalLane="ce_0" arrivalPos="196.00" arrivalSpeed="13.86" duration="54.00" routeLength="394.90" waitingTime="0.00" waitingCount="0" stopTime="0.00" timeLoss="27.67" rerouteNo="0" devices="tripinfo_main_flow.24" vType="HDV" speedFactor="1.13" vaporized=""/>
    <tripinfo id="main_flow.25" depart="38.30" departLane="wm_0" departPos="5.10" departSpeed="1.50" departDelay="0.20" arrival="91.60" arrivalLane="ce_0" arrivalPos="196.00" arrivalSpeed="14.90" duration="53.30" routeLength="394.90" waitingTime="0.00" waitingCount="0" stopTime="0.00" timeLoss="26.91" rerouteNo="0" devices="tripinfo_main_flow.25" vType="HDV" speedFactor="1.10" vaporized=""/>
    <tripinfo id="main_flow.26" depart="40.70" departLane="wm_0" departPos="5.10" departSpeed="1.60" departDelay="1.30" arrival="93.00" arrivalLane="ce_0" arrivalPos="196.00" arrivalSpeed="14.95" duration="52.30" routeLength="394.90" waitingTime="0.00" waitingCount="0" stopTime="0.00" timeLoss="25.97" rerouteNo="0" devices="tripinfo_main_flow.26" vType="HDV" speedFactor="1.01" vaporized=""/>
    <tripinfo id="main_flow.27" depart="43.10" departLane="wm_0" departPos="5.10" departSpeed="1.49" departDelay="3.20" arrival="94.50" arrivalLane="ce_0" arrivalPos="196.00" arrivalSpeed="15.00" duration="51.40" routeLength="394.90" waitingTime="0.00" waitingCount="0" stopTime="0.00" timeLoss="25.07" rerouteNo="0" devices="tripinfo_main_flow.27" vType="HDV" speedFactor="1.20" vaporized=""/>
    <tripinfo id="main_flow.28" depart="45.60" departLane="wm_0" departPos="5.10" departSpeed="1.51" departDelay="5.50" arrival="96.80" arrivalLane="ce_0" arrivalPos="196.00" arrivalSpeed="11.85" duration="51.20" routeLength="394.90" waitingTime="0.00" waitingCount="0" stopTime="0.00" timeLoss="18.17" rerouteNo="0" devices="tripinfo_main_flow.28" vType="HDV" speedFactor="0.80" vaporized=""/>
    <tripinfo id="main_flow.29" depart="48.10" departLane="wm_0" departPos="5.10" departSpeed="1.44" departDelay="7.10" arrival="98.40" arrivalLane="ce_0" arrivalPos="196.00" arrivalSpeed="13.77" duration="50.30" routeLength="394.90" waitingTime="0.00" waitingCount="0" stopTime="0.00" timeLoss="21.77" rerouteNo="0" devices="tripinfo_main_flow.29" vType="HDV" speedFactor="0.92" vaporized=""/>
    <tripinfo id="main_flow.30" depart="50.20" departLane="wm_0" departPos="5.10" departSpeed="2.39" departDelay="8.40" arrival="99.30" arrivalLane="ce_0" arrivalPos="196.00" arrivalSpeed="15.00" duration="49.10" routeLength="394.90" waitingTime="0.00" waitingCount="0" stopTime="0.00" timeLoss="22.70" rerouteNo="0" devices="tripinfo_main_flow.30" vType="CAV" speedFactor="1.00" vaporized=""/>
    <tripinfo id="main_flow.31" depart="53.00" departLane="wm_0" departPos="5.10" departSpeed="0.45" departDelay="7.80" arrival="100.80" arrivalLane="ce_0" arrivalPos="196.00" arrivalSpeed="14.82" duration="47.80" routeLength="394.90" waitingTime="0.00" waitingCount="0" stopTime="0.00" timeLoss="21.33" rerouteNo="0" devices="tripinfo_main_flow.31" vType="HDV" speedFactor="1.00" vaporized=""/>
    <tripinfo id="main_flow.32" depart="56.60" departLane="wm_0" departPos="5.10" departSpeed="1.10" departDelay="10.10" arrival="102.50" arrivalLane="ce_0" arrivalPos="196.00" arrivalSpeed="13.76" duration="45.90" routeLength="394.90" waitingTime="0.00" waitingCount="0" stopTime="0.00" timeLoss="17.27" rerouteNo="0" devices="tripinfo_main_flow.32" vType="HDV" speedFactor="0.92" vaporized=""/>
    <tripinfo id="main_flow.33" depart="59.40" departLane="wm_0" departPos="5.10" departSpeed="1.16" departDelay="10.70" arrival="104.30" arrivalLane="ce_0" arrivalPos="196.00" arrivalSpeed="13.29" duration="44.90" routeLength="394.90" waitingTime="0.00" waitingCount="0" stopTime="0.00" timeLoss="15.44" rerouteNo="0" devices="tripinfo_main_flow.33" vType="HDV" speedFactor="0.90" vaporized=""/>
    <tripinfo id="main_flow.34" depart="62.10" departLane="wm_0" departPos="5.10" departSpeed="1.66" departDelay="13.20" arrival="106.10" arrivalLane="ce_0" arrivalPos="196.00" arrivalSpeed="12.83" duration="44.00" routeLength="394.90" waitingTime="0.00" waitingCount="0" stopTime="0.00" timeLoss="13.25" rerouteNo="0" devices="tripinfo_main_flow.34" vType="HDV" speedFactor="0.86" vaporized=""/>
    <tripinfo id="main_flow.35" depart="63.80" departLane="wm_0" departPos="5.10" departSpeed="3.44" departDelay="11.80" arrival="107.10" arrivalLane="ce_0" arrivalPos="196.00" arrivalSpeed="13.11" duration="43.30" routeLength="394.90" waitingTime="0.00" waitingCount="0" stopTime="0.00" timeLoss="16.93" rerouteNo="0" devices="tripinfo_main_flow.35" vType="CAV" speedFactor="1.06" vaporized=""/>
    <tripinfo id="main_flow.36" depart="65.00" departLane="wm_0" departPos="5.10" departSpeed="3.20" departDelay="11.40" arrival="107.90" arrivalLane="ce_0" arrivalPos="196.00" arrivalSpeed="15.00" duration="42.90" routeLength="394.90" waitingTime="0.00" waitingCount="0" stopTime="0.00" timeLoss="16.58" rerouteNo="0" devices="tripinfo_main_flow.36" vType="CAV" speedFactor="1.03" vaporized=""/>
    <tripinfo id="main_flow.37" depart="69.70" departLane="wm_0" departPos="5.10" departSpeed="0.80" departDelay="16.00" arrival="109.90" arrivalLane="ce_0" arrivalPos="196.00" arrivalSpeed="12.49" duration="40.20" routeLength="394.90" waitingTime="0.00" waitingCount="0" stopTime="0.00" timeLoss="8.72" rerouteNo="0" devices="tripinfo_main_flow.37" vType="HDV" speedFactor="0.84" vaporized=""/>
    <tripinfo id="ramp_flow.12" depart="29.60" departLane="rm_0" departPos="5.10" departSpeed="10.00" departDelay="0.00" arrival="111.50" arrivalLane="ce_0" arrivalPos="196.00" arrivalSpeed="15.00" duration="81.90" routeLength="405.14" waitingTime="30.10" waitingCount="2" stopTime="0.00" timeLoss="54.80" rerouteNo="0" devices="tripinfo_ramp_flow.12" vType="HDV" speedFactor="1.08" vaporized=""/>
    <tripinfo id="ramp_flow.15" depart="41.40" departLane="rm_0" departPos="5.10" departSpeed="10.00" departDelay="0.00" arrival="112.40" arrivalLane="ce_0" arrivalPos="196.00" arrivalSpeed="15.00" duration="71.00" routeLength="405.14" waitingTime="23.30" waitingCount="6" stopTime="0.00" timeLoss="43.85" rerouteNo="0" devices="tripinfo_ramp_flow.15" vType="CAV" speedFactor="1.02" vaporized=""/>
    <tripinfo id="ramp_flow.19" depart="48.80" departLane="rm_0" departPos="5.10" departSpeed="10.00" departDelay="0.00" arrival="113.60" arrivalLane="ce_0" arrivalPos="196.00" arrivalSpeed="15.00" duration="64.80" routeLength="405.14" waitingTime="13.50" waitingCount="9" stopTime="0.00" timeLoss="37.65" rerouteNo="0" devices="tripinfo_ramp_flow.19" vType="CAV" speedFactor="1.02" vaporized=""/>
    <tripinfo id="ramp_flow.20" depart="53.40" departLane="rm_0" departPos="5.10" departSpeed="10.00" departDelay="0.00" arrival="115.30" arrivalLane="ce_0" arrivalPos="196.00" arrivalSpeed="14.94" duration="61.90" routeLength="405.14" waitingTime="11.20" waitingCount="1" stopTime="0.00" timeLoss="34.79" rerouteNo="0" devices="tripinfo_ramp_flow.20" vType="HDV" speedFactor="1.24" vaporized=""/>
    <tripinfo id="ramp_flow.9" depart="19.20" departLane="rm_0" departPos="5.10" departSpeed="10.00" departDelay="0.80" arrival="117.70" arrivalLane="ce_0" arrivalPos="196.00" arrivalSpeed="14.81" duration="98.50" routeLength="405.14" waitingTime="49.00" waitingCount="4" stopTime="0.00" timeLoss="71.07" rerouteNo="0" devices="tripinfo_ramp_flow.9" vType="HDV" speedFactor="0.99" vaporized=""/>
    <tripinfo id="main_flow.38" depart="71.70" departLane="wm_0" departPos="5.10" departSpeed="3.61" departDelay="16.70" arrival="118.70" arrivalLane="ce_0" arrivalPos="196.00" arrivalSpeed="15.00" duration="47.00" routeLength="394.90" waitingTime="0.00" waitingCount="0" stopTime="0.00" timeLoss="20.64" rerouteNo="0" devices="tripinfo_main_flow.38" vType="CAV" speedFactor="1.09" vaporized=""/>
    <tripinfo id="main_flow.39" depart="75.20" departLane="wm_0" departPos="5.10" departSpeed="0.11" departDelay="15.50" arrival="120.40" arrivalLane="ce_0" arrivalPos="196.00" arrivalSpeed="14.91" duration="45.20" routeLength="394.90" waitingTime="0.00" waitingCount="0" stopTime="0.00" timeLoss="18.84" rerouteNo="0" devices="tripinfo_main_flow.39" vType="HDV" speedFactor="1.16" vaporized=""/>
    <tripinfo id="main_flow.40" depart="78.80" departLane="wm_0" departPos="5.10" departSpeed="1.53" departDelay="18.60" arrival="122.30" arrivalLane="ce_0" arrivalPos="196.00" arrivalSpeed="14.18" duration="43.50" routeLength="394.90" waitingTime="0.00" waitingCount="0" stopTime="0.00" timeLoss="15.85" rerouteNo="0" devices="tripinfo_main_flow.40" vType="HDV" speedFactor="0.95" vaporized=""/>
    <tripinfo id="main_flow.41" depart="80.90" departLane="wm_0" departPos="5.10" departSpeed="2.55" departDelay="17.30" arrival="124.80" arrivalLane="ce_0" arrivalPos="196.00" arrivalSpeed="13.25" duration="43.90" routeLength="394.90" waitingTime="0.00" waitingCount="0" stopTime="0.00" timeLoss="14.16" rerouteNo="0" devices="tripinfo_main_flow.41" vType="HDV" speedFactor="0.89" vaporized=""/>
    <tripinfo id="main_flow.42" depart="82.70" departLane="wm_0" departPos="5.10" departSpeed="2.36" departDelay="17.60" arrival="132.00" arrivalLane="ce_0" arrivalPos="196.00" arrivalSpeed="9.99" duration="49.30" routeLength="394.90" waitingTime="0.00" waitingCount="0" stopTime="0.00" timeLoss="9.77" rerouteNo="0" devices="tripinfo_main_flow.42" vType="HDV" speedFactor="0.67" vaporized=""/>
    <tripinfo id="main_flow.43" depart="84.70" departLane="wm_0" departPos="5.10" departSpeed="2.34" departDelay="18.50" arrival="133.70" arrivalLane="ce_0" arrivalPos="196.00" arrivalSpeed="13.48" duration="49.00" routeLength="394.90" waitingTime="0.00" waitingCount="0" stopTime="0.00" timeLoss="22.60" rerouteNo="0" devices="tripinfo_main_flow.43" vType="HDV" speedFactor="1.11" vaporized=""/>
    <tripinfo id="main_flow.44" depart="86.30" departLane="wm_0" departPos="5.10" departSpeed="3.03" departDelay="16.50" arrival="134.60" arrivalLane="ce_0" arrivalPos="196.00" arrivalSpeed="15.00" duration="48.30" routeLength="394.90" waitingTime="0.00" waitingCount="0" stopTime="0.00" timeLoss="21.90" rerouteNo="0" devices="tripinfo_main_flow.44" vType="CAV" speedFactor="0.91" vaporized=""/>
    <tripinfo id="main_flow.45" depart="88.10" departLane="wm_0" departPos="5.10" departSpeed="2.11" departDelay="14.50" arrival="136.10" arrivalLane="ce_0" arrivalPos="196.00" arrivalSpeed="14.01" duration="48.00" routeLength="394.90" waitingTime="0.00" waitingCount="0" stopTime="0.00" timeLoss="19.86" rerouteNo="0" devices="tripinfo_main_flow.45" vType="HDV" speedFactor="0.94" vaporized=""/>
    <tripinfo id="main_flow.46" depart="90.10" departLane="wm_0" departPos="5.10" departSpeed="1.79" departDelay="16.00" arrival="137.60" arrivalLane="ce_0" arrivalPos="196.00" arrivalSpeed="14.88" duration="47.50" routeLength="394.90" waitingTime="0.00" waitingCount="0" stopTime="0.00" timeLoss="21.16" rerouteNo="0" devices="tripinfo_main_flow.46" vType="HDV" speedFactor="1.15" vaporized=""/>
    <tripinfo id="ramp_flow.23" depart="61.80" departLane="rm_0" departPos="5.10" departSpeed="10.00" departDelay="0.00" arrival="139.20" arrivalLane="ce_0" arrivalPos="196.00" arrivalSpeed="14.30" duration="77.40" routeLength="405.14" waitingTime="8.20" waitingCount="3" stopTime="0.00" timeLoss="49.12" rerouteNo="0" devices="tripinfo_ramp_flow.23" vType="HDV" speedFactor="0.96" vaporized=""/>
    <tripinfo id="main_flow.47" depart="92.10" departLane="wm_0" departPos="5.10" departSpeed="2.46" departDelay="16.00" arrival="140.10" arrivalLane="ce_0" arrivalPos="196.00" arrivalSpeed="15.00" duration="48.00" routeLength="394.90" waitingTime="0.00" waitingCount="0" stopTime="0.00" timeLoss="21.68" rerouteNo="0" devices="tripinfo_main_flow.47" vType="CAV" speedFactor="1.03" vaporized=""/>
    <tripinfo id="ramp_flow.5" depart="11.50" departLane="rm_0" departPos="5.10" departSpeed="10.00" departDelay="0.50" arrival="142.70" arrivalLane="ce_0" arrivalPos="196.00" arrivalSpeed="13.08" duration="131.20" routeLength="405.14" waitingTime="79.70" waitingCount="7" stopTime="0.00" timeLoss="100.15" rerouteNo="0" devices="tripinfo_ramp_flow.5" vType="HDV" speedFactor="0.87" vaporized=""/>
    <tripinfo id="ramp_flow.3" depart="7.80" departLane="rm_0" departPos="5.10" departSpeed="10.00" departDelay="0.20" arrival="146.40" arrivalLane="ce_0" arrivalPos="196.00" arrivalSpeed="15.00" duration="138.60" routeLength="405.14" waitingTime="91.90" waitingCount="5" stopTime="0.00" timeLoss="111.42" rerouteNo="0" devices="tripinfo_ramp_flow.3" vType="CAV" speedFactor="0.90" vaporized=""/>
    <tripinfo id="ramp_flow.1" depart="3.10" departLane="rm_0" departPos="5.10" departSpeed="10.00" departDelay="0.00" arrival="148.10" arrivalLane="ce_0" arrivalPos="196.00" arrivalSpeed="14.91" duration="145.00" routeLength="405.14" waitingTime="107.80" waitingCount="1" stopTime="0.00" timeLoss="117.79" rerouteNo="0" devices="tripinfo_ramp_flow.1" vType="HDV" speedFactor="1.03" vaporized=""/>
    <tripinfo id="ramp_flow.6" depart="15.10" departLane="rm_0" departPos="5.10" departSpeed="10.00" departDelay="0.00" arrival="157.00" arrivalLane="ce_0" arrivalPos="196.00" arrivalSpeed="13.29" duration="141.90" routeLength="405.14" waitingTime="81.30" waitingCount="30" stopTime="0.00" timeLoss="114.71" rerouteNo="0" devices="tripinfo_ramp_flow.6" vType="CAV" speedFactor="0.87" vaporized=""/>
    <tripinfo id="ramp_flow.13" depart="30.30" departLane="rm_0" departPos="5.10" departSpeed="10.00" departDelay="0.20" arrival="163.10" arrivalLane="ce_0" arrivalPos="196.00" arrivalSpeed="15.00" duration="132.80" routeLength="405.14" waitingTime="50.80" waitingCount="25" stopTime="0.00" timeLoss="105.59" rerouteNo="0" devices="tripinfo_ramp_flow.13" vType="CAV" speedFactor="0.90" vaporized=""/>
    <tripinfo id="ramp_flow.18" depart="47.50" departLane="rm_0" departPos="5.10" departSpeed="10.00" departDelay="0.00" arrival="166.50" arrivalLane="ce_0" arrivalPos="196.00" arrivalSpeed="12.14" duration="119.00" routeLength="405.14" waitingTime="23.40" waitingCount="11" stopTime="0.00" timeLoss="85.62" rerouteNo="0" devices="tripinfo_ramp_flow.18" vType="HDV" speedFactor="0.81" vaporized=""/>
    <tripinfo id="ramp_flow.22" depart="59.30" departLane="rm_0" departPos="5.10" departSpeed="10.00" departDelay="0.00" arrival="167.90" arrivalLane="ce_0" arrivalPos="196.00" arrivalSpeed="12.77" duration="108.60" routeLength="405.14" waitingTime="13.60" waitingCount="38" stopTime="0.00" timeLoss="81.49" rerouteNo="0" devices="tripinfo_ramp_flow.22" vType="CAV" speedFactor="1.02" vaporized=""/>
    <tripinfo id="main_flow.48" depart="93.70" departLane="wm_0" departPos="5.10" departSpeed="3.23" departDelay="17.40" arrival="169.00" arrivalLane="ce_0" arrivalPos="196.00" arrivalSpeed="12.56" duration="75.30" routeLength="394.90" waitingTime="0.50" waitingCount="5" stopTime="0.00" timeLoss="48.95" rerouteNo="0" devices="tripinfo_main_flow.48" vType="CAV" speedFactor="0.98" vaporized=""/>
    <tripinfo id="main_flow.49" depart="95.50" departLane="wm_0" departPos="5.10" departSpeed="1.77" departDelay="19.10" arrival="170.60" arrivalLane="ce_0" arrivalPos="196.00" arrivalSpeed="14.97" duration="75.10" routeLength="394.90" waitingTime="0.00" waitingCount="0" stopTime="0.00" timeLoss="48.70" rerouteNo="0" devices="tripinfo_main_flow.49" vType="HDV" speedFactor="1.13" vaporized=""/>
    <tripinfo id="ramp_flow.25" depart="66.10" departLane="rm_0" departPos="5.10" departSpeed="10.00" departDelay="0.00" arrival="172.10" arrivalLane="ce_0" arrivalPos="196.00" arrivalSpeed="14.87" duration="106.00" routeLength="405.14" waitingTime="5.10" waitingCount="2" stopTime="0.00" timeLoss="78.85" rerouteNo="0" devices="tripinfo_ramp_flow.25" vType="HDV" speedFactor="1.10" vaporized=""/>
    <tripinfo id="main_flow.50" depart="97.30" departLane="wm_0" departPos="5.10" departSpeed="2.58" departDelay="20.40" arrival="173.10" arrivalLane="ce_0" arrivalPos="196.00" arrivalSpeed="15.00" duration="75.80" routeLength="394.90" waitingTime="0.30" waitingCount="2" stopTime="0.00" timeLoss="49.42" rerouteNo="0" devices="tripinfo_main_flow.50" vType="CAV" speedFactor="1.25" vaporized=""/>
</tripinfos>
