<?xml version="1.0" encoding="UTF-8"?>

<!-- generated on 2025-04-10 04:11:14 by Eclipse SUMO sumo Version 1.21.0
<sumoConfiguration xmlns:xsi="http://www.w3.org/2001/XMLSchema-instance" xsi:noNamespaceSchemaLocation="http://sumo.dlr.de/xsd/sumoConfiguration.xsd">

    <input>
        <net-file value="C:\Users\18576\Sumo\grok_version\input_sources\highway_merge.net.xml"/>
        <route-files value="C:\Users\18576\Sumo\grok_version\input_sources\routes.rou.xml"/>
    </input>

    <output>
        <tripinfo-output value="C:\Users\18576\Sumo\grok_version\input_sources\tripinfo.xml"/>
    </output>

    <time>
        <begin value="0"/>
        <end value="5000"/>
        <step-length value="0.1"/>
    </time>

    <processing>
        <extrapolate-departpos value="true"/>
        <route-steps value="100"/>
        <ignore-route-errors value="true"/>
        <collision.action value="warn"/>
        <collision.stoptime value="1"/>
        <collision.mingap-factor value="0.1"/>
        <time-to-teleport value="-1"/>
    </processing>

    <report>
        <verbose value="true"/>
        <log value="C:\Users\18576\Sumo\grok_version\input_sources\simulation.log"/>
        <no-step-log value="false"/>
    </report>

    <traci_server>
        <remote-port value="59418"/>
    </traci_server>

    <gui_only>
        <quit-on-end value="true"/>
        <start value="false"/>
    </gui_only>

</sumoConfiguration>
-->

<tripinfos xmlns:xsi="http://www.w3.org/2001/XMLSchema-instance" xsi:noNamespaceSchemaLocation="http://sumo.dlr.de/xsd/tripinfo_file.xsd">
    <tripinfo id="main_flow.0" depart="0.10" departLane="wm_0" departPos="5.10" departSpeed="15.00" departDelay="0.00" arrival="26.50" arrivalLane="ce_0" arrivalPos="196.00" arrivalSpeed="15.00" duration="26.40" routeLength="394.90" waitingTime="0.00" waitingCount="0" stopTime="0.00" timeLoss="0.00" rerouteNo="0" devices="tripinfo_main_flow.0" vType="CAV" speedFactor="0.98" vaporized=""/>
    <tripinfo id="main_flow.1" depart="0.50" departLane="wm_0" departPos="5.10" departSpeed="12.73" departDelay="0.00" arrival="27.40" arrivalLane="ce_0" arrivalPos="196.00" arrivalSpeed="15.00" duration="26.90" routeLength="394.90" waitingTime="0.00" waitingCount="0" stopTime="0.00" timeLoss="0.49" rerouteNo="0" devices="tripinfo_main_flow.1" vType="CAV" speedFactor="1.08" vaporized=""/>
    <tripinfo id="main_flow.2" depart="1.10" departLane="wm_0" departPos="5.10" departSpeed="8.40" departDelay="0.30" arrival="29.10" arrivalLane="ce_0" arrivalPos="196.00" arrivalSpeed="14.94" duration="28.00" routeLength="394.90" waitingTime="0.00" waitingCount="0" stopTime="0.00" timeLoss="1.63" rerouteNo="0" devices="tripinfo_main_flow.2" vType="HDV" speedFactor="1.40" vaporized=""/>
    <tripinfo id="main_flow.3" depart="2.00" departLane="wm_0" departPos="5.10" departSpeed="5.75" departDelay="1.00" arrival="30.80" arrivalLane="ce_0" arrivalPos="196.00" arrivalSpeed="14.91" duration="28.80" routeLength="394.90" waitingTime="0.00" waitingCount="0" stopTime="0.00" timeLoss="2.46" rerouteNo="0" devices="tripinfo_main_flow.3" vType="HDV" speedFactor="1.09" vaporized=""/>
    <tripinfo id="ramp_flow.0" depart="1.70" departLane="rm_0" departPos="5.10" departSpeed="10.00" departDelay="0.00" arrival="34.30" arrivalLane="ce_0" arrivalPos="196.00" arrivalSpeed="13.03" duration="32.60" routeLength="405.14" waitingTime="0.00" waitingCount="0" stopTime="0.00" timeLoss="1.57" rerouteNo="0" devices="tripinfo_ramp_flow.0" vType="HDV" speedFactor="0.88" vaporized=""/>
    <tripinfo id="main_flow.4" depart="2.90" departLane="wm_0" departPos="5.10" departSpeed="5.22" departDelay="1.40" arrival="35.20" arrivalLane="ce_0" arrivalPos="196.00" arrivalSpeed="14.97" duration="32.30" routeLength="394.90" waitingTime="0.00" waitingCount="0" stopTime="0.00" timeLoss="5.91" rerouteNo="0" devices="tripinfo_main_flow.4" vType="CAV" speedFactor="1.08" vaporized=""/>
    <tripinfo id="main_flow.5" depart="4.10" departLane="wm_0" departPos="5.10" departSpeed="4.69" departDelay="0.30" arrival="36.80" arrivalLane="ce_0" arrivalPos="196.00" arrivalSpeed="14.87" duration="32.70" routeLength="394.90" waitingTime="0.00" waitingCount="0" stopTime="0.00" timeLoss="6.32" rerouteNo="0" devices="tripinfo_main_flow.5" vType="HDV" speedFactor="1.18" vaporized=""/>
    <tripinfo id="main_flow.6" depart="5.40" departLane="wm_0" departPos="5.10" departSpeed="3.20" departDelay="0.80" arrival="39.40" arrivalLane="ce_0" arrivalPos="196.00" arrivalSpeed="12.68" duration="34.00" routeLength="394.90" waitingTime="0.00" waitingCount="0" stopTime="0.00" timeLoss="2.81" rerouteNo="0" devices="tripinfo_main_flow.6" vType="HDV" speedFactor="0.85" vaporized=""/>
    <tripinfo id="main_flow.7" depart="7.80" departLane="wm_0" departPos="5.10" departSpeed="6.84" departDelay="0.00" arrival="41.20" arrivalLane="ce_0" arrivalPos="196.00" arrivalSpeed="12.80" duration="33.40" routeLength="394.90" waitingTime="0.00" waitingCount="0" stopTime="0.00" timeLoss="2.50" rerouteNo="0" devices="tripinfo_main_flow.7" vType="HDV" speedFactor="0.85" vaporized=""/>
    <tripinfo id="main_flow.8" depart="12.00" departLane="wm_0" departPos="5.10" departSpeed="15.00" departDelay="0.00" arrival="42.80" arrivalLane="ce_0" arrivalPos="196.00" arrivalSpeed="14.99" duration="30.80" routeLength="394.90" waitingTime="0.00" waitingCount="0" stopTime="0.00" timeLoss="4.42" rerouteNo="0" devices="tripinfo_main_flow.8" vType="HDV" speedFactor="1.17" vaporized=""/>
    <tripinfo id="main_flow.9" depart="12.60" departLane="wm_0" departPos="5.10" departSpeed="10.44" departDelay="0.40" arrival="44.40" arrivalLane="ce_0" arrivalPos="196.00" arrivalSpeed="14.89" duration="31.80" routeLength="394.90" waitingTime="0.00" waitingCount="0" stopTime="0.00" timeLoss="5.42" rerouteNo="0" devices="tripinfo_main_flow.9" vType="HDV" speedFactor="1.02" vaporized=""/>
    <tripinfo id="main_flow.10" depart="13.40" departLane="wm_0" departPos="5.10" departSpeed="6.73" departDelay="0.90" arrival="46.00" arrivalLane="ce_0" arrivalPos="196.00" arrivalSpeed="14.86" duration="32.60" routeLength="394.90" waitingTime="0.00" waitingCount="0" stopTime="0.00" timeLoss="6.24" rerouteNo="0" devices="tripinfo_main_flow.10" vType="HDV" speedFactor="1.06" vaporized=""/>
    <tripinfo id="main_flow.11" depart="14.50" departLane="wm_0" departPos="5.10" departSpeed="4.30" departDelay="0.80" arrival="50.30" arrivalLane="ce_0" arrivalPos="196.00" arrivalSpeed="11.56" duration="35.80" routeLength="394.90" waitingTime="0.00" waitingCount="0" stopTime="0.00" timeLoss="2.01" rerouteNo="0" devices="tripinfo_main_flow.11" vType="HDV" speedFactor="0.78" vaporized=""/>
    <tripinfo id="ramp_flow.2" depart="7.10" departLane="rm_0" departPos="5.10" departSpeed="10.00" departDelay="0.00" arrival="51.30" arrivalLane="ce_0" arrivalPos="196.00" arrivalSpeed="14.79" duration="44.20" routeLength="405.14" waitingTime="3.50" waitingCount="10" stopTime="0.00" timeLoss="17.01" rerouteNo="0" devices="tripinfo_ramp_flow.2" vType="CAV" speedFactor="1.12" vaporized=""/>
    <tripinfo id="ramp_flow.7" depart="15.80" departLane="rm_0" departPos="5.10" departSpeed="10.00" departDelay="0.30" arrival="53.90" arrivalLane="ce_0" arrivalPos="196.00" arrivalSpeed="15.00" duration="38.10" routeLength="405.14" waitingTime="0.00" waitingCount="0" stopTime="0.00" timeLoss="11.06" rerouteNo="0" devices="tripinfo_ramp_flow.7" vType="CAV" speedFactor="1.03" vaporized=""/>
    <tripinfo id="ramp_flow.5" depart="11.50" departLane="rm_0" departPos="5.10" departSpeed="10.00" departDelay="0.50" arrival="56.90" arrivalLane="ce_0" arrivalPos="196.00" arrivalSpeed="13.08" duration="45.40" routeLength="405.14" waitingTime="0.00" waitingCount="0" stopTime="0.00" timeLoss="14.33" rerouteNo="0" devices="tripinfo_ramp_flow.5" vType="HDV" speedFactor="0.87" vaporized=""/>
    <tripinfo id="ramp_flow.3" depart="7.80" departLane="rm_0" departPos="5.10" departSpeed="10.00" departDelay="0.20" arrival="58.00" arrivalLane="ce_0" arrivalPos="196.00" arrivalSpeed="12.13" duration="50.20" routeLength="405.14" waitingTime="5.50" waitingCount="8" stopTime="0.00" timeLoss="23.06" rerouteNo="0" devices="tripinfo_ramp_flow.3" vType="CAV" speedFactor="0.90" vaporized=""/>
    <tripinfo id="main_flow.12" depart="15.60" departLane="wm_0" departPos="5.10" departSpeed="4.43" departDelay="1.60" arrival="64.20" arrivalLane="ce_0" arrivalPos="196.00" arrivalSpeed="13.16" duration="48.60" routeLength="394.90" waitingTime="0.00" waitingCount="0" stopTime="0.00" timeLoss="22.26" rerouteNo="0" devices="tripinfo_main_flow.12" vType="CAV" speedFactor="1.01" vaporized=""/>
    <tripinfo id="ramp_flow.8" depart="18.00" departLane="rm_0" departPos="5.10" departSpeed="10.00" departDelay="0.00" arrival="65.80" arrivalLane="ce_0" arrivalPos="196.00" arrivalSpeed="14.90" duration="47.80" routeLength="405.14" waitingTime="0.00" waitingCount="0" stopTime="0.00" timeLoss="20.72" rerouteNo="0" devices="tripinfo_ramp_flow.8" vType="HDV" speedFactor="1.24" vaporized=""/>
    <tripinfo id="main_flow.13" depart="16.70" departLane="wm_0" departPos="5.10" departSpeed="5.15" departDelay="0.90" arrival="66.80" arrivalLane="ce_0" arrivalPos="196.00" arrivalSpeed="15.00" duration="50.10" routeLength="394.90" waitingTime="0.00" waitingCount="0" stopTime="0.00" timeLoss="23.71" rerouteNo="0" devices="tripinfo_main_flow.13" vType="CAV" speedFactor="1.13" vaporized=""/>
    <tripinfo id="main_flow.14" depart="17.70" departLane="wm_0" departPos="5.10" departSpeed="5.10" departDelay="1.80" arrival="67.80" arrivalLane="ce_0" arrivalPos="196.00" arrivalSpeed="15.00" duration="50.10" routeLength="394.90" waitingTime="0.00" waitingCount="0" stopTime="0.00" timeLoss="23.70" rerouteNo="0" devices="tripinfo_main_flow.14" vType="CAV" speedFactor="0.89" vaporized=""/>
    <tripinfo id="main_flow.15" depart="18.90" departLane="wm_0" departPos="5.10" departSpeed="3.52" departDelay="1.80" arrival="69.40" arrivalLane="ce_0" arrivalPos="196.00" arrivalSpeed="14.86" duration="50.50" routeLength="394.90" waitingTime="0.00" waitingCount="0" stopTime="0.00" timeLoss="24.11" rerouteNo="0" devices="tripinfo_main_flow.15" vType="HDV" speedFactor="1.31" vaporized=""/>
    <tripinfo id="main_flow.16" depart="20.20" departLane="wm_0" departPos="5.10" departSpeed="4.21" departDelay="0.10" arrival="70.50" arrivalLane="ce_0" arrivalPos="196.00" arrivalSpeed="12.30" duration="50.30" routeLength="394.90" waitingTime="0.00" waitingCount="0" stopTime="0.00" timeLoss="23.94" rerouteNo="0" devices="tripinfo_main_flow.16" vType="CAV" speedFactor="0.97" vaporized=""/>
    <tripinfo id="main_flow.17" depart="22.30" departLane="wm_0" departPos="5.10" departSpeed="6.93" departDelay="0.00" arrival="72.20" arrivalLane="ce_0" arrivalPos="196.00" arrivalSpeed="14.93" duration="49.90" routeLength="394.90" waitingTime="0.00" waitingCount="0" stopTime="0.00" timeLoss="23.51" rerouteNo="0" devices="tripinfo_main_flow.17" vType="HDV" speedFactor="1.04" vaporized=""/>
    <tripinfo id="main_flow.18" depart="24.70" departLane="wm_0" departPos="5.10" departSpeed="9.28" departDelay="0.00" arrival="73.80" arrivalLane="ce_0" arrivalPos="196.00" arrivalSpeed="14.92" duration="49.10" routeLength="394.90" waitingTime="0.00" waitingCount="0" stopTime="0.00" timeLoss="22.75" rerouteNo="0" devices="tripinfo_main_flow.18" vType="HDV" speedFactor="1.20" vaporized=""/>
    <tripinfo id="main_flow.19" depart="25.60" departLane="wm_0" departPos="5.10" departSpeed="5.43" departDelay="0.10" arrival="75.50" arrivalLane="ce_0" arrivalPos="196.00" arrivalSpeed="14.96" duration="49.90" routeLength="394.90" waitingTime="0.00" waitingCount="0" stopTime="0.00" timeLoss="23.50" rerouteNo="0" devices="tripinfo_main_flow.19" vType="HDV" speedFactor="1.06" vaporized=""/>
    <tripinfo id="main_flow.20" depart="28.40" departLane="wm_0" departPos="5.10" departSpeed="8.40" departDelay="0.00" arrival="77.10" arrivalLane="ce_0" arrivalPos="196.00" arrivalSpeed="14.86" duration="48.70" routeLength="394.90" waitingTime="0.00" waitingCount="0" stopTime="0.00" timeLoss="22.37" rerouteNo="0" devices="tripinfo_main_flow.20" vType="HDV" speedFactor="1.13" vaporized=""/>
    <tripinfo id="main_flow.21" depart="29.80" departLane="wm_0" departPos="5.10" departSpeed="5.82" departDelay="0.00" arrival="89.90" arrivalLane="ce_0" arrivalPos="196.00" arrivalSpeed="8.03" duration="60.10" routeLength="394.90" waitingTime="0.00" waitingCount="0" stopTime="0.00" timeLoss="11.39" rerouteNo="0" devices="tripinfo_main_flow.21" vType="HDV" speedFactor="0.54" vaporized=""/>
    <tripinfo id="main_flow.22" depart="33.00" departLane="wm_0" departPos="5.10" departSpeed="8.55" departDelay="0.00" arrival="91.60" arrivalLane="ce_0" arrivalPos="196.00" arrivalSpeed="11.89" duration="58.60" routeLength="394.90" waitingTime="0.00" waitingCount="0" stopTime="0.00" timeLoss="32.26" rerouteNo="0" devices="tripinfo_main_flow.22" vType="HDV" speedFactor="1.04" vaporized=""/>
    <tripinfo id="main_flow.23" depart="34.00" departLane="wm_0" departPos="5.10" departSpeed="4.14" departDelay="0.10" arrival="93.30" arrivalLane="ce_0" arrivalPos="196.00" arrivalSpeed="11.28" duration="59.30" routeLength="394.90" waitingTime="0.00" waitingCount="0" stopTime="0.00" timeLoss="24.33" rerouteNo="0" devices="tripinfo_main_flow.23" vType="HDV" speedFactor="0.75" vaporized=""/>
    <tripinfo id="main_flow.24" depart="35.60" departLane="wm_0" departPos="5.10" departSpeed="2.39" departDelay="0.50" arrival="94.90" arrivalLane="ce_0" arrivalPos="196.00" arrivalSpeed="14.38" duration="59.30" routeLength="394.90" waitingTime="0.00" waitingCount="0" stopTime="0.00" timeLoss="32.89" rerouteNo="0" devices="tripinfo_main_flow.24" vType="HDV" speedFactor="1.13" vaporized=""/>
    <tripinfo id="main_flow.25" depart="38.10" departLane="wm_0" departPos="5.10" departSpeed="3.10" departDelay="0.00" arrival="96.30" arrivalLane="ce_0" arrivalPos="196.00" arrivalSpeed="14.91" duration="58.20" routeLength="394.90" waitingTime="0.00" waitingCount="0" stopTime="0.00" timeLoss="31.83" rerouteNo="0" devices="tripinfo_main_flow.25" vType="HDV" speedFactor="1.10" vaporized=""/>
    <tripinfo id="main_flow.26" depart="40.00" departLane="wm_0" departPos="5.10" departSpeed="1.53" departDelay="0.60" arrival="97.80" arrivalLane="ce_0" arrivalPos="196.00" arrivalSpeed="14.88" duration="57.80" routeLength="394.90" waitingTime="0.00" waitingCount="0" stopTime="0.00" timeLoss="31.39" rerouteNo="0" devices="tripinfo_main_flow.26" vType="HDV" speedFactor="1.01" vaporized=""/>
    <tripinfo id="main_flow.27" depart="42.50" departLane="wm_0" departPos="5.10" departSpeed="1.53" departDelay="2.60" arrival="99.30" arrivalLane="ce_0" arrivalPos="196.00" arrivalSpeed="14.97" duration="56.80" routeLength="394.90" waitingTime="0.00" waitingCount="0" stopTime="0.00" timeLoss="30.40" rerouteNo="0" devices="tripinfo_main_flow.27" vType="HDV" speedFactor="1.20" vaporized=""/>
    <tripinfo id="main_flow.28" depart="45.00" departLane="wm_0" departPos="5.10" departSpeed="1.15" departDelay="4.90" arrival="101.50" arrivalLane="ce_0" arrivalPos="196.00" arrivalSpeed="11.92" duration="56.50" routeLength="394.90" waitingTime="0.00" waitingCount="0" stopTime="0.00" timeLoss="23.50" rerouteNo="0" devices="tripinfo_main_flow.28" vType="HDV" speedFactor="0.80" vaporized=""/>
    <tripinfo id="main_flow.29" depart="47.70" departLane="wm_0" departPos="5.10" departSpeed="1.01" departDelay="6.70" arrival="103.20" arrivalLane="ce_0" arrivalPos="196.00" arrivalSpeed="13.74" duration="55.50" routeLength="394.90" waitingTime="0.00" waitingCount="0" stopTime="0.00" timeLoss="26.91" rerouteNo="0" devices="tripinfo_main_flow.29" vType="HDV" speedFactor="0.92" vaporized=""/>
    <tripinfo id="ramp_flow.11" depart="24.80" departLane="rm_0" departPos="5.10" departSpeed="10.00" departDelay="0.10" arrival="106.40" arrivalLane="ce_0" arrivalPos="196.00" arrivalSpeed="10.03" duration="81.60" routeLength="405.14" waitingTime="20.70" waitingCount="4" stopTime="0.00" timeLoss="41.17" rerouteNo="0" devices="tripinfo_ramp_flow.11" vType="HDV" speedFactor="0.67" vaporized=""/>
    <tripinfo id="ramp_flow.12" depart="29.60" departLane="rm_0" departPos="5.10" departSpeed="10.00" departDelay="0.00" arrival="107.40" arrivalLane="ce_0" arrivalPos="196.00" arrivalSpeed="12.27" duration="77.80" routeLength="405.14" waitingTime="18.90" waitingCount="8" stopTime="0.00" timeLoss="50.69" rerouteNo="0" devices="tripinfo_ramp_flow.12" vType="CAV" speedFactor="1.04" vaporized=""/>
    <tripinfo id="ramp_flow.13" depart="30.30" departLane="rm_0" departPos="5.10" departSpeed="10.00" departDelay="0.20" arrival="108.30" arrivalLane="ce_0" arrivalPos="196.00" arrivalSpeed="13.64" duration="78.00" routeLength="405.14" waitingTime="16.30" waitingCount="9" stopTime="0.00" timeLoss="50.85" rerouteNo="0" devices="tripinfo_ramp_flow.13" vType="CAV" speedFactor="0.90" vaporized=""/>
    <tripinfo id="ramp_flow.1" depart="3.10" departLane="rm_0" departPos="5.10" departSpeed="10.00" departDelay="0.00" arrival="109.80" arrivalLane="ce_0" arrivalPos="196.00" arrivalSpeed="14.92" duration="106.70" routeLength="405.14" waitingTime="65.90" waitingCount="1" stopTime="0.00" timeLoss="79.51" rerouteNo="0" devices="tripinfo_ramp_flow.1" vType="HDV" speedFactor="1.03" vaporized=""/>
    <tripinfo id="ramp_flow.6" depart="15.10" departLane="rm_0" departPos="5.10" departSpeed="10.00" departDelay="0.00" arrival="121.50" arrivalLane="ce_0" arrivalPos="196.00" arrivalSpeed="7.06" duration="106.40" routeLength="405.14" waitingTime="42.50" waitingCount="8" stopTime="0.00" timeLoss="79.19" rerouteNo="0" devices="tripinfo_ramp_flow.6" vType="CAV" speedFactor="0.87" vaporized=""/>
    <tripinfo id="ramp_flow.4" depart="10.40" departLane="rm_0" departPos="5.10" departSpeed="10.00" departDelay="0.00" arrival="129.00" arrivalLane="ce_0" arrivalPos="196.00" arrivalSpeed="7.11" duration="118.60" routeLength="405.14" waitingTime="50.40" waitingCount="17" stopTime="0.00" timeLoss="91.46" rerouteNo="0" devices="tripinfo_ramp_flow.4" vType="CAV" speedFactor="1.04" vaporized=""/>
    <tripinfo id="main_flow.30" depart="50.10" departLane="wm_0" departPos="5.10" departSpeed="1.91" departDelay="8.30" arrival="133.10" arrivalLane="ce_0" arrivalPos="196.00" arrivalSpeed="9.66" duration="83.00" routeLength="394.90" waitingTime="1.80" waitingCount="11" stopTime="0.00" timeLoss="56.62" rerouteNo="0" devices="tripinfo_main_flow.30" vType="CAV" speedFactor="1.00" vaporized=""/>
    <tripinfo id="main_flow.31" depart="52.60" departLane="wm_0" departPos="5.10" departSpeed="1.19" departDelay="7.40" arrival="134.70" arrivalLane="ce_0" arrivalPos="196.00" arrivalSpeed="12.77" duration="82.10" routeLength="394.90" waitingTime="0.00" waitingCount="0" stopTime="0.00" timeLoss="55.65" rerouteNo="0" devices="tripinfo_main_flow.31" vType="HDV" speedFactor="1.00" vaporized=""/>
    <tripinfo id="main_flow.32" depart="55.50" departLane="wm_0" departPos="5.10" departSpeed="0.79" departDelay="9.00" arrival="136.20" arrivalLane="ce_0" arrivalPos="196.00" arrivalSpeed="13.72" duration="80.70" routeLength="394.90" waitingTime="0.00" waitingCount="0" stopTime="0.00" timeLoss="52.04" rerouteNo="0" devices="tripinfo_main_flow.32" vType="HDV" speedFactor="0.92" vaporized=""/>
    <tripinfo id="main_flow.33" depart="58.70" departLane="wm_0" departPos="5.10" departSpeed="0.95" departDelay="10.00" arrival="137.80" arrivalLane="ce_0" arrivalPos="196.00" arrivalSpeed="13.36" duration="79.10" routeLength="394.90" waitingTime="0.00" waitingCount="0" stopTime="0.00" timeLoss="49.65" rerouteNo="0" devices="tripinfo_main_flow.33" vType="HDV" speedFactor="0.90" vaporized=""/>
    <tripinfo id="main_flow.34" depart="61.80" departLane="wm_0" departPos="5.10" departSpeed="0.89" departDelay="12.90" arrival="139.50" arrivalLane="ce_0" arrivalPos="196.00" arrivalSpeed="12.76" duration="77.70" routeLength="394.90" waitingTime="0.00" waitingCount="0" stopTime="0.00" timeLoss="46.87" rerouteNo="0" devices="tripinfo_main_flow.34" vType="HDV" speedFactor="0.86" vaporized=""/>
    <tripinfo id="main_flow.35" depart="64.30" departLane="wm_0" departPos="5.10" departSpeed="1.82" departDelay="12.30" arrival="140.60" arrivalLane="ce_0" arrivalPos="196.00" arrivalSpeed="13.41" duration="76.30" routeLength="394.90" waitingTime="0.10" waitingCount="1" stopTime="0.00" timeLoss="49.94" rerouteNo="0" devices="tripinfo_main_flow.35" vType="CAV" speedFactor="1.06" vaporized=""/>
    <tripinfo id="main_flow.36" depart="66.30" departLane="wm_0" departPos="5.10" departSpeed="2.37" departDelay="12.70" arrival="141.60" arrivalLane="ce_0" arrivalPos="196.00" arrivalSpeed="14.41" duration="75.30" routeLength="394.90" waitingTime="0.00" waitingCount="0" stopTime="0.00" timeLoss="48.96" rerouteNo="0" devices="tripinfo_main_flow.36" vType="CAV" speedFactor="1.03" vaporized=""/>
    <tripinfo id="main_flow.37" depart="68.70" departLane="wm_0" departPos="5.10" departSpeed="1.11" departDelay="15.00" arrival="143.50" arrivalLane="ce_0" arrivalPos="196.00" arrivalSpeed="12.52" duration="74.80" routeLength="394.90" waitingTime="0.00" waitingCount="0" stopTime="0.00" timeLoss="43.34" rerouteNo="0" devices="tripinfo_main_flow.37" vType="HDV" speedFactor="0.84" vaporized=""/>
    <tripinfo id="ramp_flow.10" depart="23.60" departLane="rm_0" departPos="5.10" departSpeed="10.00" departDelay="0.00" arrival="145.20" arrivalLane="ce_0" arrivalPos="196.00" arrivalSpeed="13.16" duration="121.60" routeLength="405.14" waitingTime="52.10" waitingCount="10" stopTime="0.00" timeLoss="90.77" rerouteNo="0" devices="tripinfo_ramp_flow.10" vType="HDV" speedFactor="0.88" vaporized=""/>
    <tripinfo id="main_flow.38" depart="71.00" departLane="wm_0" departPos="5.10" departSpeed="1.70" departDelay="16.00" arrival="146.30" arrivalLane="ce_0" arrivalPos="196.00" arrivalSpeed="13.47" duration="75.30" routeLength="394.90" waitingTime="0.60" waitingCount="4" stopTime="0.00" timeLoss="48.97" rerouteNo="0" devices="tripinfo_main_flow.38" vType="CAV" speedFactor="1.09" vaporized=""/>
    <tripinfo id="main_flow.39" depart="75.00" departLane="wm_0" departPos="5.10" departSpeed="0.91" departDelay="15.30" arrival="147.90" arrivalLane="ce_0" arrivalPos="196.00" arrivalSpeed="14.93" duration="72.90" routeLength="394.90" waitingTime="0.00" waitingCount="0" stopTime="0.00" timeLoss="46.54" rerouteNo="0" devices="tripinfo_main_flow.39" vType="HDV" speedFactor="1.16" vaporized=""/>
    <tripinfo id="main_flow.40" depart="77.70" departLane="wm_0" departPos="5.10" departSpeed="1.24" departDelay="17.50" arrival="149.60" arrivalLane="ce_0" arrivalPos="196.00" arrivalSpeed="14.24" duration="71.90" routeLength="394.90" waitingTime="0.00" waitingCount="0" stopTime="0.00" timeLoss="44.15" rerouteNo="0" devices="tripinfo_main_flow.40" vType="HDV" speedFactor="0.95" vaporized=""/>
    <tripinfo id="main_flow.41" depart="79.90" departLane="wm_0" departPos="5.10" departSpeed="1.64" departDelay="16.30" arrival="151.40" arrivalLane="ce_0" arrivalPos="196.00" arrivalSpeed="13.25" duration="71.50" routeLength="394.90" waitingTime="0.00" waitingCount="0" stopTime="0.00" timeLoss="41.74" rerouteNo="0" devices="tripinfo_main_flow.41" vType="HDV" speedFactor="0.89" vaporized=""/>
    <tripinfo id="main_flow.42" depart="82.00" departLane="wm_0" departPos="5.10" departSpeed="1.96" departDelay="16.90" arrival="156.20" arrivalLane="ce_0" arrivalPos="196.00" arrivalSpeed="9.90" duration="74.20" routeLength="394.90" waitingTime="0.00" waitingCount="0" stopTime="0.00" timeLoss="34.74" rerouteNo="0" devices="tripinfo_main_flow.42" vType="HDV" speedFactor="0.67" vaporized=""/>
    <tripinfo id="main_flow.43" depart="84.00" departLane="wm_0" departPos="5.10" departSpeed="1.61" departDelay="17.80" arrival="157.90" arrivalLane="ce_0" arrivalPos="196.00" arrivalSpeed="13.97" duration="73.90" routeLength="394.90" waitingTime="0.00" waitingCount="0" stopTime="0.00" timeLoss="47.51" rerouteNo="0" devices="tripinfo_main_flow.43" vType="HDV" speedFactor="1.11" vaporized=""/>
    <tripinfo id="main_flow.44" depart="85.90" departLane="wm_0" departPos="5.10" departSpeed="2.63" departDelay="16.10" arrival="159.50" arrivalLane="ce_0" arrivalPos="196.00" arrivalSpeed="11.60" duration="73.60" routeLength="394.90" waitingTime="0.00" waitingCount="0" stopTime="0.00" timeLoss="47.25" rerouteNo="0" devices="tripinfo_main_flow.44" vType="CAV" speedFactor="0.91" vaporized=""/>
    <tripinfo id="main_flow.45" depart="88.00" departLane="wm_0" departPos="5.10" departSpeed="1.42" departDelay="14.40" arrival="161.00" arrivalLane="ce_0" arrivalPos="196.00" arrivalSpeed="14.01" duration="73.00" routeLength="394.90" waitingTime="0.00" waitingCount="0" stopTime="0.00" timeLoss="44.87" rerouteNo="0" devices="tripinfo_main_flow.45" vType="HDV" speedFactor="0.94" vaporized=""/>
    <tripinfo id="main_flow.46" depart="90.50" departLane="wm_0" departPos="5.10" departSpeed="1.28" departDelay="16.40" arrival="162.50" arrivalLane="ce_0" arrivalPos="196.00" arrivalSpeed="14.94" duration="72.00" routeLength="394.90" waitingTime="0.00" waitingCount="0" stopTime="0.00" timeLoss="45.62" rerouteNo="0" devices="tripinfo_main_flow.46" vType="HDV" speedFactor="1.15" vaporized=""/>
    <tripinfo id="main_flow.47" depart="92.80" departLane="wm_0" departPos="5.10" departSpeed="1.92" departDelay="16.70" arrival="163.90" arrivalLane="ce_0" arrivalPos="196.00" arrivalSpeed="14.11" duration="71.10" routeLength="394.90" waitingTime="0.40" waitingCount="3" stopTime="0.00" timeLoss="44.76" rerouteNo="0" devices="tripinfo_main_flow.47" vType="CAV" speedFactor="1.03" vaporized=""/>
    <tripinfo id="ramp_flow.23" depart="61.80" departLane="rm_0" departPos="5.10" departSpeed="10.00" departDelay="0.00" arrival="165.50" arrivalLane="ce_0" arrivalPos="196.00" arrivalSpeed="14.27" duration="103.70" routeLength="405.14" waitingTime="25.10" waitingCount="5" stopTime="0.00" timeLoss="75.35" rerouteNo="0" devices="tripinfo_ramp_flow.23" vType="HDV" speedFactor="0.96" vaporized=""/>
    <tripinfo id="ramp_flow.9" depart="19.20" departLane="rm_0" departPos="5.10" departSpeed="10.00" departDelay="0.80" arrival="167.00" arrivalLane="ce_0" arrivalPos="196.00" arrivalSpeed="14.75" duration="147.80" routeLength="405.14" waitingTime="78.40" waitingCount="19" stopTime="0.00" timeLoss="120.37" rerouteNo="0" devices="tripinfo_ramp_flow.9" vType="HDV" speedFactor="0.99" vaporized=""/>
    <tripinfo id="ramp_flow.17" depart="46.00" departLane="rm_0" departPos="5.10" departSpeed="10.00" departDelay="0.00" arrival="168.60" arrivalLane="ce_0" arrivalPos="196.00" arrivalSpeed="14.53" duration="122.60" routeLength="405.14" waitingTime="40.90" waitingCount="14" stopTime="0.00" timeLoss="94.70" rerouteNo="0" devices="tripinfo_ramp_flow.17" vType="HDV" speedFactor="0.97" vaporized=""/>
    <tripinfo id="main_flow.48" depart="94.90" departLane="wm_0" departPos="5.10" departSpeed="2.40" departDelay="18.60" arrival="172.00" arrivalLane="ce_0" arrivalPos="196.00" arrivalSpeed="9.41" duration="77.10" routeLength="394.90" waitingTime="0.10" waitingCount="1" stopTime="0.00" timeLoss="50.73" rerouteNo="0" devices="tripinfo_main_flow.48" vType="CAV" speedFactor="0.98" vaporized=""/>
    <tripinfo id="main_flow.49" depart="97.30" departLane="wm_0" departPos="5.10" departSpeed="0.75" departDelay="20.90" arrival="173.70" arrivalLane="ce_0" arrivalPos="196.00" arrivalSpeed="13.20" duration="76.40" routeLength="394.90" waitingTime="0.00" waitingCount="0" stopTime="0.00" timeLoss="50.02" rerouteNo="0" devices="tripinfo_main_flow.49" vType="HDV" speedFactor="1.13" vaporized=""/>
    <tripinfo id="main_flow.50" depart="99.90" departLane="wm_0" departPos="5.10" departSpeed="1.44" departDelay="23.00" arrival="174.90" arrivalLane="ce_0" arrivalPos="196.00" arrivalSpeed="12.27" duration="75.00" routeLength="394.90" waitingTime="0.10" waitingCount="1" stopTime="0.00" timeLoss="48.68" rerouteNo="0" devices="tripinfo_main_flow.50" vType="CAV" speedFactor="1.25" vaporized=""/>
    <tripinfo id="main_flow.51" depart="102.80" departLane="wm_0" departPos="5.10" departSpeed="0.72" departDelay="25.70" arrival="176.80" arrivalLane="ce_0" arrivalPos="196.00" arrivalSpeed="10.87" duration="74.00" routeLength="394.90" waitingTime="0.00" waitingCount="0" stopTime="0.00" timeLoss="38.01" rerouteNo="0" devices="tripinfo_main_flow.51" vType="HDV" speedFactor="0.73" vaporized=""/>
    <tripinfo id="main_flow.52" depart="105.80" departLane="wm_0" departPos="5.10" departSpeed="0.99" departDelay="25.70" arrival="178.40" arrivalLane="ce_0" arrivalPos="196.00" arrivalSpeed="14.50" duration="72.60" routeLength="394.90" waitingTime="0.00" waitingCount="0" stopTime="0.00" timeLoss="46.27" rerouteNo="0" devices="tripinfo_main_flow.52" vType="HDV" speedFactor="1.04" vaporized=""/>
    <tripinfo id="main_flow.53" depart="108.60" departLane="wm_0" departPos="5.10" departSpeed="1.34" departDelay="25.00" arrival="179.70" arrivalLane="ce_0" arrivalPos="196.00" arrivalSpeed="13.85" duration="71.10" routeLength="394.90" waitingTime="0.00" waitingCount="0" stopTime="0.00" timeLoss="44.71" rerouteNo="0" devices="tripinfo_main_flow.53" vType="CAV" speedFactor="1.10" vaporized=""/>
    <tripinfo id="main_flow.54" depart="111.70" departLane="wm_0" departPos="5.10" departSpeed="0.92" departDelay="27.70" arrival="181.20" arrivalLane="ce_0" arrivalPos="196.00" arrivalSpeed="14.06" duration="69.50" routeLength="394.90" waitingTime="0.00" waitingCount="0" stopTime="0.00" timeLoss="41.49" rerouteNo="0" devices="tripinfo_main_flow.54" vType="HDV" speedFactor="0.94" vaporized=""/>