<?xml version="1.0" encoding="UTF-8"?>

<!-- generated on 2025-03-30 22:10:12 by Eclipse SUMO sumo Version 1.21.0
<sumoConfiguration xmlns:xsi="http://www.w3.org/2001/XMLSchema-instance" xsi:noNamespaceSchemaLocation="http://sumo.dlr.de/xsd/sumoConfiguration.xsd">

    <input>
        <net-file value="C:\Users\18576\Sumo\grok_version\input_sources\highway_merge.net.xml"/>
        <route-files value="C:\Users\18576\Sumo\grok_version\input_sources\routes.rou.xml"/>
    </input>

    <output>
        <tripinfo-output value="C:\Users\18576\Sumo\grok_version\input_sources\tripinfo.xml"/>
    </output>

    <time>
        <begin value="0"/>
        <end value="5000"/>
        <step-length value="0.1"/>
    </time>

    <processing>
        <extrapolate-departpos value="true"/>
        <route-steps value="100"/>
        <ignore-route-errors value="true"/>
        <collision.action value="warn"/>
        <collision.stoptime value="1"/>
        <collision.mingap-factor value="0.1"/>
        <time-to-teleport value="-1"/>
    </processing>

    <report>
        <verbose value="true"/>
        <log value="C:\Users\18576\Sumo\grok_version\input_sources\simulation.log"/>
        <no-step-log value="false"/>
    </report>

    <traci_server>
        <remote-port value="44203"/>
    </traci_server>

    <gui_only>
        <quit-on-end value="true"/>
        <start value="false"/>
    </gui_only>

</sumoConfiguration>
-->

<tripinfos xmlns:xsi="http://www.w3.org/2001/XMLSchema-instance" xsi:noNamespaceSchemaLocation="http://sumo.dlr.de/xsd/tripinfo_file.xsd">
    <tripinfo id="main_flow.0" depart="0.50" departLane="wm_0" departPos="5.10" departSpeed="30.00" departDelay="0.00" arrival="14.60" arrivalLane="ce_0" arrivalPos="196.00" arrivalSpeed="19.24" duration="14.10" routeLength="394.90" waitingTime="0.00" waitingCount="0" stopTime="0.00" timeLoss="0.88" rerouteNo="0" devices="tripinfo_main_flow.0" vType="CAV" speedFactor="0.98" vaporized=""/>
    <tripinfo id="main_flow.1" depart="4.60" departLane="wm_0" departPos="5.10" departSpeed="30.00" departDelay="0.00" arrival="19.60" arrivalLane="ce_0" arrivalPos="196.00" arrivalSpeed="21.03" duration="15.00" routeLength="394.90" waitingTime="0.00" waitingCount="0" stopTime="0.00" timeLoss="1.83" rerouteNo="0" devices="tripinfo_main_flow.1" vType="CAV" speedFactor="1.08" vaporized=""/>
    <tripinfo id="main_flow.2" depart="7.80" departLane="wm_0" departPos="5.10" departSpeed="30.00" departDelay="0.00" arrival="25.40" arrivalLane="ce_0" arrivalPos="196.00" arrivalSpeed="18.16" duration="17.60" routeLength="394.90" waitingTime="0.00" waitingCount="0" stopTime="0.00" timeLoss="4.40" rerouteNo="0" devices="tripinfo_main_flow.2" vType="CAV" speedFactor="1.08" vaporized=""/>
    <tripinfo id="main_flow.3" depart="12.00" departLane="wm_0" departPos="5.10" departSpeed="30.00" departDelay="0.00" arrival="27.20" arrivalLane="ce_0" arrivalPos="196.00" arrivalSpeed="25.13" duration="15.20" routeLength="394.90" waitingTime="0.00" waitingCount="0" stopTime="0.00" timeLoss="2.01" rerouteNo="0" devices="tripinfo_main_flow.3" vType="HDV" speedFactor="1.18" vaporized=""/>
    <tripinfo id="main_flow.4" depart="13.70" departLane="wm_0" departPos="5.10" departSpeed="25.37" departDelay="0.00" arrival="29.40" arrivalLane="ce_0" arrivalPos="196.00" arrivalSpeed="25.32" duration="15.70" routeLength="394.90" waitingTime="0.00" waitingCount="0" stopTime="0.00" timeLoss="0.05" rerouteNo="0" devices="tripinfo_main_flow.4" vType="HDV" speedFactor="0.85" vaporized=""/>
    <tripinfo id="ramp_flow.0" depart="7.10" departLane="rm_0" departPos="5.10" departSpeed="10.00" departDelay="0.00" arrival="34.60" arrivalLane="ce_0" arrivalPos="196.00" arrivalSpeed="29.99" duration="27.50" routeLength="405.14" waitingTime="0.70" waitingCount="1" stopTime="0.00" timeLoss="13.87" rerouteNo="0" devices="tripinfo_ramp_flow.0" vType="HDV" speedFactor="1.40" vaporized=""/>
    <tripinfo id="ramp_flow.2" depart="10.40" departLane="rm_0" departPos="5.10" departSpeed="10.00" departDelay="0.00" arrival="37.30" arrivalLane="ce_0" arrivalPos="196.00" arrivalSpeed="26.22" duration="26.90" routeLength="405.14" waitingTime="0.00" waitingCount="0" stopTime="0.00" timeLoss="11.15" rerouteNo="0" devices="tripinfo_ramp_flow.2" vType="HDV" speedFactor="0.88" vaporized=""/>
    <tripinfo id="ramp_flow.3" depart="11.20" departLane="rm_0" departPos="5.10" departSpeed="10.00" departDelay="0.20" arrival="45.40" arrivalLane="ce_0" arrivalPos="196.00" arrivalSpeed="16.54" duration="34.20" routeLength="405.14" waitingTime="0.00" waitingCount="0" stopTime="0.00" timeLoss="20.49" rerouteNo="0" devices="tripinfo_ramp_flow.3" vType="CAV" speedFactor="1.02" vaporized=""/>
    <tripinfo id="ramp_flow.1" depart="7.80" departLane="rm_0" departPos="5.10" departSpeed="10.00" departDelay="0.20" arrival="51.20" arrivalLane="ce_0" arrivalPos="196.00" arrivalSpeed="15.16" duration="43.40" routeLength="405.14" waitingTime="0.60" waitingCount="5" stopTime="0.00" timeLoss="29.65" rerouteNo="0" devices="tripinfo_ramp_flow.1" vType="CAV" speedFactor="1.05" vaporized=""/>
    <tripinfo id="ramp_flow.4" depart="15.10" departLane="rm_0" departPos="5.10" departSpeed="10.00" departDelay="0.00" arrival="56.90" arrivalLane="ce_0" arrivalPos="196.00" arrivalSpeed="15.22" duration="41.80" routeLength="405.14" waitingTime="0.60" waitingCount="5" stopTime="0.00" timeLoss="27.98" rerouteNo="0" devices="tripinfo_ramp_flow.4" vType="CAV" speedFactor="0.90" vaporized=""/>
    <tripinfo id="main_flow.5" depart="14.00" departLane="wm_0" departPos="5.10" departSpeed="23.22" departDelay="0.00" arrival="61.90" arrivalLane="ce_0" arrivalPos="196.00" arrivalSpeed="15.33" duration="47.90" routeLength="394.90" waitingTime="5.10" waitingCount="24" stopTime="0.00" timeLoss="34.70" rerouteNo="0" devices="tripinfo_main_flow.5" vType="CAV" speedFactor="1.12" vaporized=""/>
    <tripinfo id="main_flow.6" depart="22.30" departLane="wm_0" departPos="5.10" departSpeed="30.00" departDelay="0.00" arrival="63.40" arrivalLane="ce_0" arrivalPos="196.00" arrivalSpeed="18.20" duration="41.10" routeLength="394.90" waitingTime="0.00" waitingCount="0" stopTime="0.00" timeLoss="27.91" rerouteNo="0" devices="tripinfo_main_flow.6" vType="HDV" speedFactor="1.17" vaporized=""/>
    <tripinfo id="ramp_flow.5" depart="18.10" departLane="rm_0" departPos="5.10" departSpeed="10.00" departDelay="2.60" arrival="64.90" arrivalLane="ce_0" arrivalPos="196.00" arrivalSpeed="21.28" duration="46.80" routeLength="405.14" waitingTime="6.90" waitingCount="1" stopTime="0.00" timeLoss="30.62" rerouteNo="0" devices="tripinfo_ramp_flow.5" vType="HDV" speedFactor="0.85" vaporized=""/>
    <tripinfo id="main_flow.7" depart="25.50" departLane="wm_0" departPos="5.10" departSpeed="30.00" departDelay="0.00" arrival="70.10" arrivalLane="ce_0" arrivalPos="196.00" arrivalSpeed="14.94" duration="44.60" routeLength="394.90" waitingTime="5.00" waitingCount="27" stopTime="0.00" timeLoss="31.42" rerouteNo="0" devices="tripinfo_main_flow.7" vType="CAV" speedFactor="1.03" vaporized=""/>
    <tripinfo id="main_flow.8" depart="28.40" departLane="wm_0" departPos="5.10" departSpeed="23.38" departDelay="0.00" arrival="71.70" arrivalLane="ce_0" arrivalPos="196.00" arrivalSpeed="18.32" duration="43.30" routeLength="394.90" waitingTime="0.00" waitingCount="0" stopTime="0.00" timeLoss="26.34" rerouteNo="0" devices="tripinfo_main_flow.8" vType="HDV" speedFactor="0.78" vaporized=""/>
    <tripinfo id="ramp_flow.6" depart="19.40" departLane="rm_0" departPos="5.10" departSpeed="10.00" departDelay="1.40" arrival="76.50" arrivalLane="ce_0" arrivalPos="196.00" arrivalSpeed="15.31" duration="57.10" routeLength="405.14" waitingTime="4.10" waitingCount="17" stopTime="0.00" timeLoss="43.39" rerouteNo="0" devices="tripinfo_ramp_flow.6" vType="CAV" speedFactor="1.04" vaporized=""/>
    <tripinfo id="ramp_flow.8" depart="25.30" departLane="rm_0" departPos="5.10" departSpeed="10.00" departDelay="1.70" arrival="78.00" arrivalLane="ce_0" arrivalPos="196.00" arrivalSpeed="18.13" duration="52.70" routeLength="405.14" waitingTime="0.00" waitingCount="0" stopTime="0.00" timeLoss="38.93" rerouteNo="0" devices="tripinfo_ramp_flow.8" vType="HDV" speedFactor="1.02" vaporized=""/>
    <tripinfo id="ramp_flow.7" depart="22.10" departLane="rm_0" departPos="5.10" departSpeed="10.00" departDelay="3.70" arrival="79.40" arrivalLane="ce_0" arrivalPos="196.00" arrivalSpeed="20.93" duration="57.30" routeLength="405.14" waitingTime="0.30" waitingCount="1" stopTime="0.00" timeLoss="41.58" rerouteNo="0" devices="tripinfo_ramp_flow.7" vType="HDV" speedFactor="0.87" vaporized=""/>
    <tripinfo id="main_flow.9" depart="29.80" departLane="wm_0" departPos="5.10" departSpeed="25.49" departDelay="0.00" arrival="83.30" arrivalLane="ce_0" arrivalPos="196.00" arrivalSpeed="15.93" duration="53.50" routeLength="394.90" waitingTime="10.70" waitingCount="46" stopTime="0.00" timeLoss="40.30" rerouteNo="0" devices="tripinfo_main_flow.9" vType="CAV" speedFactor="1.01" vaporized=""/>
    <tripinfo id="ramp_flow.9" depart="36.80" departLane="rm_0" departPos="5.10" departSpeed="10.00" departDelay="0.00" arrival="89.80" arrivalLane="ce_0" arrivalPos="196.00" arrivalSpeed="14.62" duration="53.00" routeLength="405.14" waitingTime="2.40" waitingCount="15" stopTime="0.00" timeLoss="39.20" rerouteNo="0" devices="tripinfo_ramp_flow.9" vType="CAV" speedFactor="0.87" vaporized=""/>
    <tripinfo id="ramp_flow.10" depart="44.20" departLane="rm_0" departPos="5.10" departSpeed="10.00" departDelay="2.80" arrival="96.00" arrivalLane="ce_0" arrivalPos="196.00" arrivalSpeed="15.39" duration="51.80" routeLength="405.14" waitingTime="3.60" waitingCount="16" stopTime="0.00" timeLoss="38.08" rerouteNo="0" devices="tripinfo_ramp_flow.10" vType="CAV" speedFactor="1.15" vaporized=""/>
    <tripinfo id="main_flow.10" depart="39.90" departLane="wm_0" departPos="5.10" departSpeed="30.00" departDelay="0.00" arrival="101.60" arrivalLane="ce_0" arrivalPos="196.00" arrivalSpeed="15.84" duration="61.70" routeLength="394.90" waitingTime="9.70" waitingCount="45" stopTime="0.00" timeLoss="48.51" rerouteNo="0" devices="tripinfo_main_flow.10" vType="CAV" speedFactor="1.03" vaporized=""/>
    <tripinfo id="ramp_flow.13" depart="72.50" departLane="rm_0" departPos="5.10" departSpeed="10.00" departDelay="23.70" arrival="104.90" arrivalLane="ce_0" arrivalPos="196.00" arrivalSpeed="15.08" duration="32.40" routeLength="405.14" waitingTime="0.00" waitingCount="0" stopTime="0.00" timeLoss="18.62" rerouteNo="0" devices="tripinfo_ramp_flow.13" vType="CAV" speedFactor="0.94" vaporized=""/>
    <tripinfo id="ramp_flow.11" depart="47.20" departLane="rm_0" departPos="5.10" departSpeed="10.00" departDelay="4.10" arrival="111.40" arrivalLane="ce_0" arrivalPos="196.00" arrivalSpeed="15.18" duration="64.20" routeLength="405.14" waitingTime="9.30" waitingCount="55" stopTime="0.00" timeLoss="50.39" rerouteNo="0" devices="tripinfo_ramp_flow.11" vType="CAV" speedFactor="0.99" vaporized=""/>
    <tripinfo id="ramp_flow.12" depart="59.20" departLane="rm_0" departPos="5.10" departSpeed="10.00" departDelay="13.20" arrival="118.10" arrivalLane="ce_0" arrivalPos="196.00" arrivalSpeed="15.41" duration="58.90" routeLength="405.14" waitingTime="7.50" waitingCount="37" stopTime="0.00" timeLoss="45.12" rerouteNo="0" devices="tripinfo_ramp_flow.12" vType="CAV" speedFactor="0.97" vaporized=""/>
    <tripinfo id="ramp_flow.15" depart="75.90" departLane="rm_0" departPos="5.10" departSpeed="10.00" departDelay="16.60" arrival="123.90" arrivalLane="ce_0" arrivalPos="196.00" arrivalSpeed="15.97" duration="48.00" routeLength="405.14" waitingTime="3.10" waitingCount="17" stopTime="0.00" timeLoss="34.30" rerouteNo="0" devices="tripinfo_ramp_flow.15" vType="CAV" speedFactor="1.04" vaporized=""/>
    <tripinfo id="ramp_flow.17" depart="92.30" departLane="rm_0" departPos="5.10" departSpeed="10.00" departDelay="22.10" arrival="125.40" arrivalLane="ce_0" arrivalPos="196.00" arrivalSpeed="18.99" duration="33.10" routeLength="405.14" waitingTime="0.00" waitingCount="0" stopTime="0.00" timeLoss="14.93" rerouteNo="0" devices="tripinfo_ramp_flow.17" vType="HDV" speedFactor="0.75" vaporized=""/>
    <tripinfo id="ramp_flow.16" depart="81.10" departLane="rm_0" departPos="5.10" departSpeed="10.00" departDelay="19.30" arrival="128.30" arrivalLane="ce_0" arrivalPos="196.00" arrivalSpeed="16.20" duration="47.20" routeLength="405.14" waitingTime="2.30" waitingCount="1" stopTime="0.00" timeLoss="21.78" rerouteNo="0" devices="tripinfo_ramp_flow.16" vType="HDV" speedFactor="0.54" vaporized=""/>
    <tripinfo id="ramp_flow.18" depart="93.60" departLane="rm_0" departPos="5.10" departSpeed="10.00" departDelay="22.70" arrival="133.70" arrivalLane="ce_0" arrivalPos="196.00" arrivalSpeed="15.80" duration="40.10" routeLength="405.14" waitingTime="0.70" waitingCount="2" stopTime="0.00" timeLoss="26.36" rerouteNo="0" devices="tripinfo_ramp_flow.18" vType="CAV" speedFactor="1.06" vaporized=""/>
    <tripinfo id="ramp_flow.19" depart="94.90" departLane="rm_0" departPos="5.10" departSpeed="10.00" departDelay="19.00" arrival="138.20" arrivalLane="ce_0" arrivalPos="196.00" arrivalSpeed="15.29" duration="43.30" routeLength="405.14" waitingTime="0.40" waitingCount="3" stopTime="0.00" timeLoss="29.61" rerouteNo="0" devices="tripinfo_ramp_flow.19" vType="CAV" speedFactor="1.17" vaporized=""/>
    <tripinfo id="ramp_flow.14" depart="74.50" departLane="rm_0" departPos="5.10" departSpeed="10.00" departDelay="21.10" arrival="143.60" arrivalLane="ce_0" arrivalPos="196.00" arrivalSpeed="15.17" duration="69.10" routeLength="405.14" waitingTime="9.60" waitingCount="44" stopTime="0.00" timeLoss="55.39" rerouteNo="0" devices="tripinfo_ramp_flow.14" vType="CAV" speedFactor="1.03" vaporized=""/>
    <tripinfo id="ramp_flow.20" depart="96.20" departLane="rm_0" departPos="5.10" departSpeed="10.00" departDelay="8.70" arrival="149.70" arrivalLane="ce_0" arrivalPos="196.00" arrivalSpeed="15.89" duration="53.50" routeLength="405.14" waitingTime="2.90" waitingCount="12" stopTime="0.00" timeLoss="39.82" rerouteNo="0" devices="tripinfo_ramp_flow.20" vType="CAV" speedFactor="1.02" vaporized=""/>
    <tripinfo id="ramp_flow.21" depart="97.30" departLane="rm_0" departPos="5.10" departSpeed="10.00" departDelay="8.40" arrival="155.70" arrivalLane="ce_0" arrivalPos="196.00" arrivalSpeed="14.91" duration="58.40" routeLength="405.14" waitingTime="6.20" waitingCount="23" stopTime="0.00" timeLoss="44.71" rerouteNo="0" devices="tripinfo_ramp_flow.21" vType="CAV" speedFactor="1.12" vaporized=""/>
    <tripinfo id="ramp_flow.22" depart="100.80" departLane="rm_0" departPos="5.10" departSpeed="10.00" departDelay="8.60" arrival="157.20" arrivalLane="ce_0" arrivalPos="196.00" arrivalSpeed="18.86" duration="56.40" routeLength="405.14" waitingTime="0.00" waitingCount="0" stopTime="0.00" timeLoss="42.36" rerouteNo="0" devices="tripinfo_ramp_flow.22" vType="HDV" speedFactor="0.97" vaporized=""/>
    <tripinfo id="main_flow.11" depart="40.10" departLane="wm_0" departPos="5.10" departSpeed="27.41" departDelay="0.00" arrival="163.70" arrivalLane="ce_0" arrivalPos="196.00" arrivalSpeed="15.38" duration="123.60" routeLength="394.90" waitingTime="35.40" waitingCount="165" stopTime="0.00" timeLoss="110.43" rerouteNo="0" devices="tripinfo_main_flow.11" vType="CAV" speedFactor="1.13" vaporized=""/>
    <tripinfo id="ramp_flow.25" depart="107.40" departLane="rm_0" departPos="5.10" departSpeed="10.00" departDelay="9.00" arrival="167.40" arrivalLane="ce_0" arrivalPos="196.00" arrivalSpeed="16.09" duration="60.00" routeLength="405.14" waitingTime="9.00" waitingCount="57" stopTime="0.00" timeLoss="46.30" rerouteNo="0" devices="tripinfo_ramp_flow.25" vType="CAV" speedFactor="1.02" vaporized=""/>
    <tripinfo id="ramp_flow.23" depart="102.50" departLane="rm_0" departPos="5.10" departSpeed="10.00" departDelay="10.20" arrival="172.00" arrivalLane="ce_0" arrivalPos="196.00" arrivalSpeed="15.06" duration="69.50" routeLength="405.14" waitingTime="12.10" waitingCount="53" stopTime="0.00" timeLoss="55.73" rerouteNo="0" devices="tripinfo_ramp_flow.23" vType="CAV" speedFactor="0.96" vaporized=""/>
    <tripinfo id="ramp_flow.26" depart="117.50" departLane="rm_0" departPos="5.10" departSpeed="10.00" departDelay="12.90" arrival="177.00" arrivalLane="ce_0" arrivalPos="196.00" arrivalSpeed="15.84" duration="59.50" routeLength="405.14" waitingTime="8.90" waitingCount="45" stopTime="0.00" timeLoss="45.76" rerouteNo="0" devices="tripinfo_ramp_flow.26" vType="CAV" speedFactor="1.03" vaporized=""/>
    <tripinfo id="ramp_flow.27" depart="141.40" departLane="rm_0" departPos="5.10" departSpeed="10.00" departDelay="33.60" arrival="181.40" arrivalLane="ce_0" arrivalPos="196.00" arrivalSpeed="16.46" duration="40.00" routeLength="405.14" waitingTime="1.80" waitingCount="14" stopTime="0.00" timeLoss="26.22" rerouteNo="0" devices="tripinfo_ramp_flow.27" vType="CAV" speedFactor="1.09" vaporized=""/>
    <tripinfo id="ramp_flow.28" depart="153.00" departLane="rm_0" departPos="5.10" departSpeed="10.00" departDelay="37.70" arrival="182.90" arrivalLane="ce_0" arrivalPos="196.00" arrivalSpeed="19.52" duration="29.90" routeLength="405.14" waitingTime="0.00" waitingCount="0" stopTime="0.00" timeLoss="15.62" rerouteNo="0" devices="tripinfo_ramp_flow.28" vType="HDV" speedFactor="0.96" vaporized=""/>
    <tripinfo id="ramp_flow.24" depart="104.30" departLane="rm_0" departPos="5.10" departSpeed="10.00" departDelay="7.20" arrival="188.70" arrivalLane="ce_0" arrivalPos="196.00" arrivalSpeed="16.54" duration="84.40" routeLength="405.14" waitingTime="13.80" waitingCount="69" stopTime="0.00" timeLoss="70.62" rerouteNo="0" devices="tripinfo_ramp_flow.24" vType="CAV" speedFactor="0.91" vaporized=""/>
    <tripinfo id="ramp_flow.29" depart="154.50" departLane="rm_0" departPos="5.10" departSpeed="10.00" departDelay="22.30" arrival="190.20" arrivalLane="ce_0" arrivalPos="196.00" arrivalSpeed="20.38" duration="35.70" routeLength="405.14" waitingTime="0.00" waitingCount="0" stopTime="0.00" timeLoss="20.21" rerouteNo="0" devices="tripinfo_ramp_flow.29" vType="HDV" speedFactor="0.89" vaporized=""/>
    <tripinfo id="ramp_flow.30" depart="155.30" departLane="rm_0" departPos="5.10" departSpeed="10.00" departDelay="22.60" arrival="195.70" arrivalLane="ce_0" arrivalPos="196.00" arrivalSpeed="17.35" duration="40.40" routeLength="405.14" waitingTime="0.00" waitingCount="0" stopTime="0.00" timeLoss="26.63" rerouteNo="0" devices="tripinfo_ramp_flow.30" vType="CAV" speedFactor="0.83" vaporized=""/>
    <tripinfo id="ramp_flow.31" depart="156.30" departLane="rm_0" departPos="5.10" departSpeed="10.00" departDelay="9.50" arrival="201.10" arrivalLane="ce_0" arrivalPos="196.00" arrivalSpeed="15.47" duration="44.80" routeLength="405.14" waitingTime="0.70" waitingCount="7" stopTime="0.00" timeLoss="31.07" rerouteNo="0" devices="tripinfo_ramp_flow.31" vType="CAV" speedFactor="0.97" vaporized=""/>
    <tripinfo id="main_flow.12" depart="41.00" departLane="wm_0" departPos="5.10" departSpeed="25.47" departDelay="0.00" arrival="203.90" arrivalLane="ce_0" arrivalPos="196.00" arrivalSpeed="15.20" duration="162.90" routeLength="394.90" waitingTime="51.70" waitingCount="238" stopTime="0.00" timeLoss="149.71" rerouteNo="0" devices="tripinfo_main_flow.12" vType="CAV" speedFactor="0.89" vaporized=""/>
    <tripinfo id="main_flow.13" depart="41.80" departLane="wm_0" departPos="5.10" departSpeed="19.52" departDelay="0.00" arrival="205.30" arrivalLane="ce_0" arrivalPos="196.00" arrivalSpeed="18.54" duration="163.50" routeLength="394.90" waitingTime="0.90" waitingCount="1" stopTime="0.00" timeLoss="150.32" rerouteNo="0" devices="tripinfo_main_flow.13" vType="HDV" speedFactor="1.24" vaporized=""/>
    <tripinfo id="main_flow.14" depart="46.50" departLane="wm_0" departPos="5.10" departSpeed="20.44" departDelay="0.00" arrival="206.60" arrivalLane="ce_0" arrivalPos="196.00" arrivalSpeed="20.40" duration="160.10" routeLength="394.90" waitingTime="0.00" waitingCount="0" stopTime="0.00" timeLoss="146.94" rerouteNo="0" devices="tripinfo_main_flow.14" vType="HDV" speedFactor="1.04" vaporized=""/>
    <tripinfo id="ramp_flow.34" depart="176.40" departLane="rm_0" departPos="5.10" departSpeed="10.00" departDelay="14.30" arrival="207.90" arrivalLane="ce_0" arrivalPos="196.00" arrivalSpeed="21.93" duration="31.50" routeLength="405.14" waitingTime="0.00" waitingCount="0" stopTime="0.00" timeLoss="17.82" rerouteNo="0" devices="tripinfo_ramp_flow.34" vType="HDV" speedFactor="1.13" vaporized=""/>
    <tripinfo id="ramp_flow.33" depart="165.30" departLane="rm_0" departPos="5.10" departSpeed="10.00" departDelay="6.60" arrival="209.30" arrivalLane="ce_0" arrivalPos="196.00" arrivalSpeed="24.21" duration="44.00" routeLength="405.14" waitingTime="0.20" waitingCount="2" stopTime="0.00" timeLoss="30.26" rerouteNo="0" devices="tripinfo_ramp_flow.33" vType="HDV" speedFactor="1.15" vaporized=""/>
    <tripinfo id="ramp_flow.35" depart="177.70" departLane="rm_0" departPos="5.10" departSpeed="10.00" departDelay="15.10" arrival="216.20" arrivalLane="ce_0" arrivalPos="196.00" arrivalSpeed="16.06" duration="38.50" routeLength="405.14" waitingTime="0.00" waitingCount="0" stopTime="0.00" timeLoss="24.82" rerouteNo="0" devices="tripinfo_ramp_flow.35" vType="CAV" speedFactor="1.25" vaporized=""/>
    <tripinfo id="ramp_flow.32" depart="158.10" departLane="rm_0" departPos="5.10" departSpeed="10.00" departDelay="3.00" arrival="222.30" arrivalLane="ce_0" arrivalPos="196.00" arrivalSpeed="15.46" duration="64.20" routeLength="405.14" waitingTime="15.20" waitingCount="28" stopTime="0.00" timeLoss="50.44" rerouteNo="0" devices="tripinfo_ramp_flow.32" vType="CAV" speedFactor="1.07" vaporized=""/>
    <tripinfo id="ramp_flow.36" depart="179.40" departLane="rm_0" departPos="5.10" departSpeed="10.00" departDelay="15.80" arrival="228.10" arrivalLane="ce_0" arrivalPos="196.00" arrivalSpeed="17.57" duration="48.70" routeLength="405.14" waitingTime="1.90" waitingCount="8" stopTime="0.00" timeLoss="34.95" rerouteNo="0" devices="tripinfo_ramp_flow.36" vType="CAV" speedFactor="0.87" vaporized=""/>
    <tripinfo id="ramp_flow.38" depart="196.50" departLane="rm_0" departPos="5.10" departSpeed="10.00" departDelay="29.00" arrival="229.60" arrivalLane="ce_0" arrivalPos="196.00" arrivalSpeed="19.88" duration="33.10" routeLength="405.14" waitingTime="0.00" waitingCount="0" stopTime="0.00" timeLoss="19.43" rerouteNo="0" devices="tripinfo_ramp_flow.38" vType="HDV" speedFactor="1.35" vaporized=""/>
    <tripinfo id="ramp_flow.39" depart="198.30" departLane="rm_0" departPos="5.10" departSpeed="10.00" departDelay="28.80" arrival="230.90" arrivalLane="ce_0" arrivalPos="196.00" arrivalSpeed="21.99" duration="32.60" routeLength="405.14" waitingTime="0.00" waitingCount="0" stopTime="0.00" timeLoss="18.20" rerouteNo="0" devices="tripinfo_ramp_flow.39" vType="HDV" speedFactor="0.95" vaporized=""/>
    <tripinfo id="ramp_flow.37" depart="182.00" departLane="rm_0" departPos="5.10" departSpeed="10.00" departDelay="18.30" arrival="237.50" arrivalLane="ce_0" arrivalPos="196.00" arrivalSpeed="14.99" duration="55.50" routeLength="405.14" waitingTime="11.40" waitingCount="18" stopTime="0.00" timeLoss="41.80" rerouteNo="0" devices="tripinfo_ramp_flow.37" vType="CAV" speedFactor="1.10" vaporized=""/>
    <tripinfo id="main_flow.15" depart="48.90" departLane="wm_0" departPos="5.10" departSpeed="21.05" departDelay="0.00" arrival="241.50" arrivalLane="ce_0" arrivalPos="196.00" arrivalSpeed="15.13" duration="192.60" routeLength="394.90" waitingTime="60.30" waitingCount="249" stopTime="0.00" timeLoss="179.42" rerouteNo="0" devices="tripinfo_main_flow.15" vType="CAV" speedFactor="1.10" vaporized=""/>
    <tripinfo id="main_flow.16" depart="52.00" departLane="wm_0" departPos="5.10" departSpeed="18.63" departDelay="0.00" arrival="243.10" arrivalLane="ce_0" arrivalPos="196.00" arrivalSpeed="19.26" duration="191.10" routeLength="394.90" waitingTime="1.70" waitingCount="9" stopTime="0.00" timeLoss="171.45" rerouteNo="0" devices="tripinfo_main_flow.16" vType="HDV" speedFactor="0.67" vaporized=""/>
    <tripinfo id="ramp_flow.41" depart="201.00" departLane="rm_0" departPos="5.10" departSpeed="10.00" departDelay="28.40" arrival="244.50" arrivalLane="ce_0" arrivalPos="196.00" arrivalSpeed="21.58" duration="43.50" routeLength="405.14" waitingTime="0.00" waitingCount="0" stopTime="0.00" timeLoss="29.80" rerouteNo="0" devices="tripinfo_ramp_flow.41" vType="HDV" speedFactor="1.06" vaporized=""/>
    <tripinfo id="ramp_flow.40" depart="199.60" departLane="rm_0" departPos="5.10" departSpeed="10.00" departDelay="27.10" arrival="245.90" arrivalLane="ce_0" arrivalPos="196.00" arrivalSpeed="23.60" duration="46.30" routeLength="405.14" waitingTime="8.70" waitingCount="2" stopTime="0.00" timeLoss="30.67" rerouteNo="0" devices="tripinfo_ramp_flow.40" vType="HDV" speedFactor="0.88" vaporized=""/>
    <tripinfo id="ramp_flow.43" depart="203.20" departLane="rm_0" departPos="5.10" departSpeed="10.00" departDelay="23.60" arrival="252.40" arrivalLane="ce_0" arrivalPos="196.00" arrivalSpeed="16.60" duration="49.20" routeLength="405.14" waitingTime="1.90" waitingCount="7" stopTime="0.00" timeLoss="35.42" rerouteNo="0" devices="tripinfo_ramp_flow.43" vType="CAV" speedFactor="1.12" vaporized=""/>
    <tripinfo id="ramp_flow.45" depart="207.50" departLane="rm_0" departPos="5.10" departSpeed="10.00" departDelay="6.30" arrival="258.90" arrivalLane="ce_0" arrivalPos="196.00" arrivalSpeed="15.00" duration="51.40" routeLength="405.14" waitingTime="2.30" waitingCount="17" stopTime="0.00" timeLoss="37.67" rerouteNo="0" devices="tripinfo_ramp_flow.45" vType="CAV" speedFactor="1.11" vaporized=""/>
    <tripinfo id="ramp_flow.46" depart="221.80" departLane="rm_0" departPos="5.10" departSpeed="10.00" departDelay="19.40" arrival="260.40" arrivalLane="ce_0" arrivalPos="196.00" arrivalSpeed="18.63" duration="38.60" routeLength="405.14" waitingTime="0.00" waitingCount="0" stopTime="0.00" timeLoss="24.89" rerouteNo="0" devices="tripinfo_ramp_flow.46" vType="HDV" speedFactor="1.03" vaporized=""/>
    <tripinfo id="ramp_flow.47" depart="224.70" departLane="rm_0" departPos="5.10" departSpeed="10.00" departDelay="1.30" arrival="266.50" arrivalLane="ce_0" arrivalPos="196.00" arrivalSpeed="16.40" duration="41.80" routeLength="405.14" waitingTime="1.00" waitingCount="3" stopTime="0.00" timeLoss="28.04" rerouteNo="0" devices="tripinfo_ramp_flow.47" vType="CAV" speedFactor="1.18" vaporized=""/>
    <tripinfo id="ramp_flow.48" depart="239.20" departLane="rm_0" departPos="5.10" departSpeed="10.00" departDelay="0.00" arrival="268.00" arrivalLane="ce_0" arrivalPos="196.00" arrivalSpeed="19.22" duration="28.80" routeLength="405.14" waitingTime="0.00" waitingCount="0" stopTime="0.00" timeLoss="15.14" rerouteNo="0" devices="tripinfo_ramp_flow.48" vType="HDV" speedFactor="1.26" vaporized=""/>
    <tripinfo id="ramp_flow.49" depart="242.10" departLane="rm_0" departPos="5.10" departSpeed="10.00" departDelay="0.00" arrival="269.40" arrivalLane="ce_0" arrivalPos="196.00" arrivalSpeed="21.40" duration="27.30" routeLength="405.14" waitingTime="0.00" waitingCount="0" stopTime="0.00" timeLoss="13.09" rerouteNo="0" devices="tripinfo_ramp_flow.49" vType="HDV" speedFactor="0.97" vaporized=""/>
    <tripinfo id="ramp_flow.42" depart="202.00" departLane="rm_0" departPos="5.10" departSpeed="10.00" departDelay="26.20" arrival="275.80" arrivalLane="ce_0" arrivalPos="196.00" arrivalSpeed="15.40" duration="73.80" routeLength="405.14" waitingTime="8.80" waitingCount="38" stopTime="0.00" timeLoss="60.04" rerouteNo="0" devices="tripinfo_ramp_flow.42" vType="CAV" speedFactor="1.02" vaporized=""/>
    <tripinfo id="ramp_flow.50" depart="248.40" departLane="rm_0" departPos="5.10" departSpeed="10.00" departDelay="0.00" arrival="281.90" arrivalLane="ce_0" arrivalPos="196.00" arrivalSpeed="17.02" duration="33.50" routeLength="405.14" waitingTime="0.30" waitingCount="2" stopTime="0.00" timeLoss="19.62" rerouteNo="0" devices="tripinfo_ramp_flow.50" vType="CAV" speedFactor="0.87" vaporized=""/>
    <tripinfo id="ramp_flow.44" depart="204.80" departLane="rm_0" departPos="5.10" departSpeed="10.00" departDelay="18.60" arrival="287.40" arrivalLane="ce_0" arrivalPos="196.00" arrivalSpeed="17.46" duration="82.60" routeLength="405.14" waitingTime="12.30" waitingCount="60" stopTime="0.00" timeLoss="68.90" rerouteNo="0" devices="tripinfo_ramp_flow.44" vType="CAV" speedFactor="1.04" vaporized=""/>
    <tripinfo id="main_flow.17" depart="53.60" departLane="wm_0" departPos="5.10" departSpeed="17.92" departDelay="0.00" arrival="293.60" arrivalLane="ce_0" arrivalPos="196.00" arrivalSpeed="15.84" duration="240.00" routeLength="394.90" waitingTime="77.60" waitingCount="385" stopTime="0.00" timeLoss="226.81" rerouteNo="0" devices="tripinfo_main_flow.17" vType="CAV" speedFactor="1.07" vaporized=""/>
    <tripinfo id="ramp_flow.51" depart="268.80" departLane="rm_0" departPos="5.10" departSpeed="10.00" departDelay="0.00" arrival="295.10" arrivalLane="ce_0" arrivalPos="196.00" arrivalSpeed="18.98" duration="26.30" routeLength="405.14" waitingTime="0.00" waitingCount="0" stopTime="0.00" timeLoss="12.12" rerouteNo="0" devices="tripinfo_ramp_flow.51" vType="HDV" speedFactor="0.97" vaporized=""/>
    <tripinfo id="main_flow.18" depart="63.60" departLane="wm_0" departPos="5.10" departSpeed="22.03" departDelay="0.00" arrival="301.30" arrivalLane="ce_0" arrivalPos="196.00" arrivalSpeed="15.77" duration="237.70" routeLength="394.90" waitingTime="77.50" waitingCount="374" stopTime="0.00" timeLoss="224.49" rerouteNo="0" devices="tripinfo_main_flow.18" vType="CAV" speedFactor="0.90" vaporized=""/>