<?xml version="1.0" encoding="UTF-8"?>

<!-- generated on 2025-04-05 21:53:20 by Eclipse SUMO sumo Version 1.21.0
<sumoConfiguration xmlns:xsi="http://www.w3.org/2001/XMLSchema-instance" xsi:noNamespaceSchemaLocation="http://sumo.dlr.de/xsd/sumoConfiguration.xsd">

    <input>
        <net-file value="C:\Users\18576\Sumo\grok_version\input_sources\highway_merge.net.xml"/>
        <route-files value="C:\Users\18576\Sumo\grok_version\input_sources\routes.rou.xml"/>
    </input>

    <output>
        <tripinfo-output value="C:\Users\18576\Sumo\grok_version\input_sources\tripinfo.xml"/>
    </output>

    <time>
        <begin value="0"/>
        <end value="5000"/>
        <step-length value="0.1"/>
    </time>

    <processing>
        <extrapolate-departpos value="true"/>
        <route-steps value="100"/>
        <ignore-route-errors value="true"/>
        <collision.action value="warn"/>
        <collision.stoptime value="1"/>
        <collision.mingap-factor value="0.1"/>
        <time-to-teleport value="-1"/>
    </processing>

    <report>
        <verbose value="true"/>
        <log value="C:\Users\18576\Sumo\grok_version\input_sources\simulation.log"/>
        <no-step-log value="false"/>
    </report>

    <traci_server>
        <remote-port value="14922"/>
    </traci_server>

    <gui_only>
        <quit-on-end value="true"/>
        <start value="false"/>
    </gui_only>

</sumoConfiguration>
-->

<tripinfos xmlns:xsi="http://www.w3.org/2001/XMLSchema-instance" xsi:noNamespaceSchemaLocation="http://sumo.dlr.de/xsd/tripinfo_file.xsd">
    <tripinfo id="main_flow.0" depart="0.50" departLane="wm_0" departPos="5.10" departSpeed="30.00" departDelay="0.00" arrival="14.10" arrivalLane="ce_0" arrivalPos="196.00" arrivalSpeed="27.67" duration="13.60" routeLength="394.90" waitingTime="0.00" waitingCount="0" stopTime="0.00" timeLoss="0.38" rerouteNo="0" devices="tripinfo_main_flow.0" vType="CAV" speedFactor="0.98" vaporized=""/>
    <tripinfo id="main_flow.1" depart="4.60" departLane="wm_0" departPos="5.10" departSpeed="30.00" departDelay="0.00" arrival="19.00" arrivalLane="ce_0" arrivalPos="196.00" arrivalSpeed="22.37" duration="14.40" routeLength="394.90" waitingTime="0.00" waitingCount="0" stopTime="0.00" timeLoss="1.20" rerouteNo="0" devices="tripinfo_main_flow.1" vType="CAV" speedFactor="1.08" vaporized=""/>
    <tripinfo id="main_flow.2" depart="7.80" departLane="wm_0" departPos="5.10" departSpeed="30.00" departDelay="0.00" arrival="23.80" arrivalLane="ce_0" arrivalPos="196.00" arrivalSpeed="20.91" duration="16.00" routeLength="394.90" waitingTime="0.00" waitingCount="0" stopTime="0.00" timeLoss="2.80" rerouteNo="0" devices="tripinfo_main_flow.2" vType="CAV" speedFactor="1.08" vaporized=""/>
    <tripinfo id="main_flow.3" depart="12.00" departLane="wm_0" departPos="5.10" departSpeed="30.00" departDelay="0.00" arrival="25.80" arrivalLane="ce_0" arrivalPos="196.00" arrivalSpeed="29.99" duration="13.80" routeLength="394.90" waitingTime="0.00" waitingCount="0" stopTime="0.00" timeLoss="0.61" rerouteNo="0" devices="tripinfo_main_flow.3" vType="HDV" speedFactor="1.18" vaporized=""/>
    <tripinfo id="main_flow.4" depart="13.70" departLane="wm_0" departPos="5.10" departSpeed="25.37" departDelay="0.00" arrival="29.40" arrivalLane="ce_0" arrivalPos="196.00" arrivalSpeed="25.35" duration="15.70" routeLength="394.90" waitingTime="0.00" waitingCount="0" stopTime="0.00" timeLoss="0.05" rerouteNo="0" devices="tripinfo_main_flow.4" vType="HDV" speedFactor="0.85" vaporized=""/>
</tripinfos>
