<?xml version="1.0" encoding="UTF-8"?>

<!-- generated on 2025-04-06 12:08:07 by Eclipse SUMO sumo Version 1.21.0
<sumoConfiguration xmlns:xsi="http://www.w3.org/2001/XMLSchema-instance" xsi:noNamespaceSchemaLocation="http://sumo.dlr.de/xsd/sumoConfiguration.xsd">

    <input>
        <net-file value="C:\Users\18576\Sumo\grok_version\input_sources\highway_merge.net.xml"/>
        <route-files value="C:\Users\18576\Sumo\grok_version\input_sources\routes.rou.xml"/>
    </input>

    <output>
        <tripinfo-output value="C:\Users\18576\Sumo\grok_version\input_sources\tripinfo.xml"/>
    </output>

    <time>
        <begin value="0"/>
        <end value="5000"/>
        <step-length value="0.1"/>
    </time>

    <processing>
        <extrapolate-departpos value="true"/>
        <route-steps value="100"/>
        <ignore-route-errors value="true"/>
        <collision.action value="warn"/>
        <collision.stoptime value="1"/>
        <collision.mingap-factor value="0.1"/>
        <time-to-teleport value="-1"/>
    </processing>

    <report>
        <verbose value="true"/>
        <log value="C:\Users\18576\Sumo\grok_version\input_sources\simulation.log"/>
        <no-step-log value="false"/>
    </report>

    <traci_server>
        <remote-port value="54831"/>
    </traci_server>

    <gui_only>
        <quit-on-end value="true"/>
        <start value="false"/>
    </gui_only>

</sumoConfiguration>
-->

<tripinfos xmlns:xsi="http://www.w3.org/2001/XMLSchema-instance" xsi:noNamespaceSchemaLocation="http://sumo.dlr.de/xsd/tripinfo_file.xsd">
    <tripinfo id="main_flow.0" depart="0.50" departLane="wm_0" departPos="5.10" departSpeed="15.00" departDelay="0.00" arrival="27.00" arrivalLane="ce_0" arrivalPos="196.00" arrivalSpeed="14.30" duration="26.50" routeLength="394.90" waitingTime="0.00" waitingCount="0" stopTime="0.00" timeLoss="0.13" rerouteNo="0" devices="tripinfo_main_flow.0" vType="CAV" speedFactor="0.98" vaporized=""/>
    <tripinfo id="main_flow.1" depart="4.60" departLane="wm_0" departPos="5.10" departSpeed="15.00" departDelay="0.00" arrival="31.10" arrivalLane="ce_0" arrivalPos="196.00" arrivalSpeed="15.00" duration="26.50" routeLength="394.90" waitingTime="0.00" waitingCount="0" stopTime="0.00" timeLoss="0.10" rerouteNo="0" devices="tripinfo_main_flow.1" vType="CAV" speedFactor="1.08" vaporized=""/>
    <tripinfo id="main_flow.2" depart="7.80" departLane="wm_0" departPos="5.10" departSpeed="15.00" departDelay="0.00" arrival="34.30" arrivalLane="ce_0" arrivalPos="196.00" arrivalSpeed="14.80" duration="26.50" routeLength="394.90" waitingTime="0.00" waitingCount="0" stopTime="0.00" timeLoss="0.09" rerouteNo="0" devices="tripinfo_main_flow.2" vType="CAV" speedFactor="1.08" vaporized=""/>
    <tripinfo id="main_flow.3" depart="12.00" departLane="wm_0" departPos="5.10" departSpeed="15.00" departDelay="0.00" arrival="38.50" arrivalLane="ce_0" arrivalPos="196.00" arrivalSpeed="14.97" duration="26.50" routeLength="394.90" waitingTime="0.00" waitingCount="0" stopTime="0.00" timeLoss="0.15" rerouteNo="0" devices="tripinfo_main_flow.3" vType="HDV" speedFactor="1.18" vaporized=""/>
    <tripinfo id="main_flow.4" depart="13.70" departLane="wm_0" departPos="5.10" departSpeed="12.69" departDelay="0.00" arrival="45.10" arrivalLane="ce_0" arrivalPos="196.00" arrivalSpeed="12.65" duration="31.40" routeLength="394.90" waitingTime="0.00" waitingCount="0" stopTime="0.00" timeLoss="0.26" rerouteNo="0" devices="tripinfo_main_flow.4" vType="HDV" speedFactor="0.85" vaporized=""/>
    <tripinfo id="main_flow.5" depart="14.20" departLane="wm_0" departPos="5.10" departSpeed="10.49" departDelay="0.20" arrival="46.00" arrivalLane="ce_0" arrivalPos="196.00" arrivalSpeed="14.55" duration="31.80" routeLength="394.90" waitingTime="0.00" waitingCount="0" stopTime="0.00" timeLoss="5.47" rerouteNo="0" devices="tripinfo_main_flow.5" vType="CAV" speedFactor="1.12" vaporized=""/>
    <tripinfo id="ramp_flow.2" depart="10.40" departLane="rm_0" departPos="5.10" departSpeed="10.00" departDelay="0.00" arrival="49.60" arrivalLane="ce_0" arrivalPos="196.00" arrivalSpeed="13.01" duration="39.20" routeLength="405.14" waitingTime="0.20" waitingCount="2" stopTime="0.00" timeLoss="8.18" rerouteNo="0" devices="tripinfo_ramp_flow.2" vType="HDV" speedFactor="0.88" vaporized=""/>
    <tripinfo id="ramp_flow.3" depart="11.20" departLane="rm_0" departPos="5.10" departSpeed="10.00" departDelay="0.20" arrival="50.60" arrivalLane="ce_0" arrivalPos="196.00" arrivalSpeed="13.31" duration="39.40" routeLength="405.14" waitingTime="0.00" waitingCount="0" stopTime="0.00" timeLoss="12.34" rerouteNo="0" devices="tripinfo_ramp_flow.3" vType="CAV" speedFactor="1.02" vaporized=""/>
    <tripinfo id="ramp_flow.4" depart="15.10" departLane="rm_0" departPos="5.10" departSpeed="10.00" departDelay="0.00" arrival="51.60" arrivalLane="ce_0" arrivalPos="196.00" arrivalSpeed="13.01" duration="36.50" routeLength="405.14" waitingTime="0.00" waitingCount="0" stopTime="0.00" timeLoss="9.32" rerouteNo="0" devices="tripinfo_ramp_flow.4" vType="CAV" speedFactor="0.90" vaporized=""/>
    <tripinfo id="main_flow.6" depart="22.30" departLane="wm_0" departPos="5.10" departSpeed="15.00" departDelay="0.00" arrival="53.30" arrivalLane="ce_0" arrivalPos="196.00" arrivalSpeed="14.87" duration="31.00" routeLength="394.90" waitingTime="0.00" waitingCount="0" stopTime="0.00" timeLoss="4.59" rerouteNo="0" devices="tripinfo_main_flow.6" vType="HDV" speedFactor="1.17" vaporized=""/>
    <tripinfo id="main_flow.7" depart="25.50" departLane="wm_0" departPos="5.10" departSpeed="15.00" departDelay="0.00" arrival="54.20" arrivalLane="ce_0" arrivalPos="196.00" arrivalSpeed="14.70" duration="28.70" routeLength="394.90" waitingTime="0.00" waitingCount="0" stopTime="0.00" timeLoss="2.36" rerouteNo="0" devices="tripinfo_main_flow.7" vType="CAV" speedFactor="1.03" vaporized=""/>
    <tripinfo id="ramp_flow.8" depart="23.60" departLane="rm_0" departPos="5.10" departSpeed="10.00" departDelay="0.00" arrival="55.90" arrivalLane="ce_0" arrivalPos="196.00" arrivalSpeed="14.88" duration="32.30" routeLength="405.14" waitingTime="0.00" waitingCount="0" stopTime="0.00" timeLoss="5.15" rerouteNo="0" devices="tripinfo_ramp_flow.8" vType="HDV" speedFactor="1.02" vaporized=""/>
    <tripinfo id="main_flow.8" depart="28.40" departLane="wm_0" departPos="5.10" departSpeed="11.69" departDelay="0.00" arrival="62.50" arrivalLane="ce_0" arrivalPos="196.00" arrivalSpeed="11.59" duration="34.10" routeLength="394.90" waitingTime="0.00" waitingCount="0" stopTime="0.00" timeLoss="0.25" rerouteNo="0" devices="tripinfo_main_flow.8" vType="HDV" speedFactor="0.78" vaporized=""/>
    <tripinfo id="main_flow.9" depart="29.80" departLane="wm_0" departPos="5.10" departSpeed="13.14" departDelay="0.00" arrival="63.40" arrivalLane="ce_0" arrivalPos="196.00" arrivalSpeed="14.42" duration="33.60" routeLength="394.90" waitingTime="0.00" waitingCount="0" stopTime="0.00" timeLoss="7.22" rerouteNo="0" devices="tripinfo_main_flow.9" vType="CAV" speedFactor="1.01" vaporized=""/>
    <tripinfo id="ramp_flow.1" depart="7.80" departLane="rm_0" departPos="5.10" departSpeed="10.00" departDelay="0.20" arrival="64.50" arrivalLane="ce_0" arrivalPos="196.00" arrivalSpeed="15.00" duration="56.70" routeLength="405.14" waitingTime="20.30" waitingCount="5" stopTime="0.00" timeLoss="29.63" rerouteNo="0" devices="tripinfo_ramp_flow.1" vType="CAV" speedFactor="1.05" vaporized=""/>
    <tripinfo id="ramp_flow.7" depart="19.60" departLane="rm_0" departPos="5.10" departSpeed="10.00" departDelay="1.20" arrival="67.20" arrivalLane="ce_0" arrivalPos="196.00" arrivalSpeed="13.00" duration="47.60" routeLength="405.14" waitingTime="0.00" waitingCount="0" stopTime="0.00" timeLoss="16.53" rerouteNo="0" devices="tripinfo_ramp_flow.7" vType="HDV" speedFactor="0.87" vaporized=""/>
    <tripinfo id="ramp_flow.9" depart="36.80" departLane="rm_0" departPos="5.10" departSpeed="10.00" departDelay="0.00" arrival="75.20" arrivalLane="ce_0" arrivalPos="196.00" arrivalSpeed="9.04" duration="38.40" routeLength="405.14" waitingTime="0.00" waitingCount="0" stopTime="0.00" timeLoss="11.14" rerouteNo="0" devices="tripinfo_ramp_flow.9" vType="CAV" speedFactor="0.87" vaporized=""/>
    <tripinfo id="main_flow.10" depart="39.90" departLane="wm_0" departPos="5.10" departSpeed="15.00" departDelay="0.00" arrival="76.10" arrivalLane="ce_0" arrivalPos="196.00" arrivalSpeed="12.20" duration="36.20" routeLength="394.90" waitingTime="0.00" waitingCount="0" stopTime="0.00" timeLoss="9.86" rerouteNo="0" devices="tripinfo_main_flow.10" vType="CAV" speedFactor="1.03" vaporized=""/>
    <tripinfo id="main_flow.11" depart="40.30" departLane="wm_0" departPos="5.10" departSpeed="12.73" departDelay="0.20" arrival="77.10" arrivalLane="ce_0" arrivalPos="196.00" arrivalSpeed="13.17" duration="36.80" routeLength="394.90" waitingTime="0.00" waitingCount="0" stopTime="0.00" timeLoss="10.41" rerouteNo="0" devices="tripinfo_main_flow.11" vType="CAV" speedFactor="1.13" vaporized=""/>
    <tripinfo id="main_flow.12" depart="41.00" departLane="wm_0" departPos="5.10" departSpeed="11.51" departDelay="0.00" arrival="78.00" arrivalLane="ce_0" arrivalPos="196.00" arrivalSpeed="12.83" duration="37.00" routeLength="394.90" waitingTime="0.00" waitingCount="0" stopTime="0.00" timeLoss="10.61" rerouteNo="0" devices="tripinfo_main_flow.12" vType="CAV" speedFactor="0.89" vaporized=""/>
    <tripinfo id="main_flow.13" depart="41.80" departLane="wm_0" departPos="5.10" departSpeed="8.06" departDelay="0.00" arrival="79.50" arrivalLane="ce_0" arrivalPos="196.00" arrivalSpeed="14.99" duration="37.70" routeLength="394.90" waitingTime="0.00" waitingCount="0" stopTime="0.00" timeLoss="11.29" rerouteNo="0" devices="tripinfo_main_flow.13" vType="HDV" speedFactor="1.24" vaporized=""/>
    <tripinfo id="main_flow.14" depart="46.50" departLane="wm_0" departPos="5.10" departSpeed="15.00" departDelay="0.00" arrival="80.90" arrivalLane="ce_0" arrivalPos="196.00" arrivalSpeed="14.88" duration="34.40" routeLength="394.90" waitingTime="0.00" waitingCount="0" stopTime="0.00" timeLoss="8.03" rerouteNo="0" devices="tripinfo_main_flow.14" vType="HDV" speedFactor="1.04" vaporized=""/>
    <tripinfo id="ramp_flow.12" depart="46.00" departLane="rm_0" departPos="5.10" departSpeed="10.00" departDelay="0.00" arrival="81.70" arrivalLane="ce_0" arrivalPos="196.00" arrivalSpeed="15.00" duration="35.70" routeLength="405.14" waitingTime="0.00" waitingCount="0" stopTime="0.00" timeLoss="8.59" rerouteNo="0" devices="tripinfo_ramp_flow.12" vType="CAV" speedFactor="0.97" vaporized=""/>
    <tripinfo id="main_flow.15" depart="48.90" departLane="wm_0" departPos="5.10" departSpeed="15.00" departDelay="0.00" arrival="82.60" arrivalLane="ce_0" arrivalPos="196.00" arrivalSpeed="15.00" duration="33.70" routeLength="394.90" waitingTime="0.00" waitingCount="0" stopTime="0.00" timeLoss="7.38" rerouteNo="0" devices="tripinfo_main_flow.15" vType="CAV" speedFactor="1.10" vaporized=""/>
    <tripinfo id="ramp_flow.13" depart="48.80" departLane="rm_0" departPos="5.10" departSpeed="10.00" departDelay="0.00" arrival="83.50" arrivalLane="ce_0" arrivalPos="196.00" arrivalSpeed="15.00" duration="34.70" routeLength="405.14" waitingTime="0.00" waitingCount="0" stopTime="0.00" timeLoss="7.54" rerouteNo="0" devices="tripinfo_ramp_flow.13" vType="CAV" speedFactor="0.94" vaporized=""/>
    <tripinfo id="ramp_flow.0" depart="7.10" departLane="rm_0" departPos="5.10" departSpeed="10.00" departDelay="0.00" arrival="85.10" arrivalLane="ce_0" arrivalPos="196.00" arrivalSpeed="14.89" duration="78.00" routeLength="405.14" waitingTime="40.60" waitingCount="1" stopTime="0.00" timeLoss="50.89" rerouteNo="0" devices="tripinfo_ramp_flow.0" vType="HDV" speedFactor="1.40" vaporized=""/>
    <tripinfo id="ramp_flow.6" depart="18.00" departLane="rm_0" departPos="5.10" departSpeed="10.00" departDelay="0.00" arrival="86.00" arrivalLane="ce_0" arrivalPos="196.00" arrivalSpeed="15.00" duration="68.00" routeLength="405.14" waitingTime="11.50" waitingCount="20" stopTime="0.00" timeLoss="40.88" rerouteNo="0" devices="tripinfo_ramp_flow.6" vType="CAV" speedFactor="1.04" vaporized=""/>
    <tripinfo id="ramp_flow.11" depart="43.10" departLane="rm_0" departPos="5.10" departSpeed="10.00" departDelay="0.00" arrival="86.90" arrivalLane="ce_0" arrivalPos="196.00" arrivalSpeed="14.80" duration="43.80" routeLength="405.14" waitingTime="2.80" waitingCount="1" stopTime="0.00" timeLoss="16.67" rerouteNo="0" devices="tripinfo_ramp_flow.11" vType="CAV" speedFactor="0.99" vaporized=""/>
    <tripinfo id="main_flow.16" depart="52.00" departLane="wm_0" departPos="5.10" departSpeed="10.05" departDelay="0.00" arrival="91.90" arrivalLane="ce_0" arrivalPos="196.00" arrivalSpeed="9.96" duration="39.90" routeLength="394.90" waitingTime="0.00" waitingCount="0" stopTime="0.00" timeLoss="0.60" rerouteNo="0" devices="tripinfo_main_flow.16" vType="HDV" speedFactor="0.67" vaporized=""/>
    <tripinfo id="main_flow.17" depart="53.60" departLane="wm_0" departPos="5.10" departSpeed="11.89" departDelay="0.00" arrival="92.90" arrivalLane="ce_0" arrivalPos="196.00" arrivalSpeed="12.30" duration="39.30" routeLength="394.90" waitingTime="0.00" waitingCount="0" stopTime="0.00" timeLoss="12.95" rerouteNo="0" devices="tripinfo_main_flow.17" vType="CAV" speedFactor="1.07" vaporized=""/>
    <tripinfo id="ramp_flow.14" depart="53.40" departLane="rm_0" departPos="5.10" departSpeed="10.00" departDelay="0.00" arrival="93.80" arrivalLane="ce_0" arrivalPos="196.00" arrivalSpeed="13.81" duration="40.40" routeLength="405.14" waitingTime="0.00" waitingCount="0" stopTime="0.00" timeLoss="13.28" rerouteNo="0" devices="tripinfo_ramp_flow.14" vType="CAV" speedFactor="1.03" vaporized=""/>
    <tripinfo id="ramp_flow.15" depart="59.30" departLane="rm_0" departPos="5.10" departSpeed="10.00" departDelay="0.00" arrival="94.90" arrivalLane="ce_0" arrivalPos="196.00" arrivalSpeed="12.02" duration="35.60" routeLength="405.14" waitingTime="0.00" waitingCount="0" stopTime="0.00" timeLoss="8.43" rerouteNo="0" devices="tripinfo_ramp_flow.15" vType="CAV" speedFactor="1.04" vaporized=""/>
    <tripinfo id="main_flow.18" depart="63.60" departLane="wm_0" departPos="5.10" departSpeed="15.00" departDelay="0.00" arrival="95.80" arrivalLane="ce_0" arrivalPos="196.00" arrivalSpeed="12.76" duration="32.20" routeLength="394.90" waitingTime="0.00" waitingCount="0" stopTime="0.00" timeLoss="5.85" rerouteNo="0" devices="tripinfo_main_flow.18" vType="CAV" speedFactor="0.90" vaporized=""/>
    <tripinfo id="main_flow.19" depart="66.20" departLane="wm_0" departPos="5.10" departSpeed="15.00" departDelay="0.00" arrival="97.30" arrivalLane="ce_0" arrivalPos="196.00" arrivalSpeed="14.90" duration="31.10" routeLength="394.90" waitingTime="0.00" waitingCount="0" stopTime="0.00" timeLoss="4.78" rerouteNo="0" devices="tripinfo_main_flow.19" vType="HDV" speedFactor="1.04" vaporized=""/>
    <tripinfo id="ramp_flow.16" depart="61.80" departLane="rm_0" departPos="5.10" departSpeed="10.00" departDelay="0.00" arrival="98.90" arrivalLane="ce_0" arrivalPos="196.00" arrivalSpeed="14.86" duration="37.10" routeLength="405.14" waitingTime="0.10" waitingCount="1" stopTime="0.00" timeLoss="10.03" rerouteNo="0" devices="tripinfo_ramp_flow.16" vType="HDV" speedFactor="1.12" vaporized=""/>
    <tripinfo id="main_flow.20" depart="76.10" departLane="wm_0" departPos="5.10" departSpeed="15.00" departDelay="0.00" arrival="102.70" arrivalLane="ce_0" arrivalPos="196.00" arrivalSpeed="14.99" duration="26.60" routeLength="394.90" waitingTime="0.00" waitingCount="0" stopTime="0.00" timeLoss="0.19" rerouteNo="0" devices="tripinfo_main_flow.20" vType="HDV" speedFactor="1.10" vaporized=""/>
    <tripinfo id="main_flow.21" depart="76.90" departLane="wm_0" departPos="5.10" departSpeed="11.37" departDelay="0.00" arrival="104.40" arrivalLane="ce_0" arrivalPos="196.00" arrivalSpeed="14.97" duration="27.50" routeLength="394.90" waitingTime="0.00" waitingCount="0" stopTime="0.00" timeLoss="1.11" rerouteNo="0" devices="tripinfo_main_flow.21" vType="HDV" speedFactor="1.01" vaporized=""/>
    <tripinfo id="ramp_flow.10" depart="41.40" departLane="rm_0" departPos="5.10" departSpeed="10.00" departDelay="0.00" arrival="108.20" arrivalLane="ce_0" arrivalPos="196.00" arrivalSpeed="15.00" duration="66.80" routeLength="405.14" waitingTime="20.80" waitingCount="12" stopTime="0.00" timeLoss="39.69" rerouteNo="0" devices="tripinfo_ramp_flow.10" vType="CAV" speedFactor="1.15" vaporized=""/>
    <tripinfo id="ramp_flow.19" depart="75.90" departLane="rm_0" departPos="5.10" departSpeed="10.00" departDelay="0.00" arrival="109.80" arrivalLane="ce_0" arrivalPos="196.00" arrivalSpeed="15.00" duration="33.90" routeLength="405.14" waitingTime="0.00" waitingCount="0" stopTime="0.00" timeLoss="6.78" rerouteNo="0" devices="tripinfo_ramp_flow.19" vType="CAV" speedFactor="1.17" vaporized=""/>
    <tripinfo id="main_flow.22" depart="83.60" departLane="wm_0" departPos="5.10" departSpeed="15.00" departDelay="0.00" arrival="111.50" arrivalLane="ce_0" arrivalPos="196.00" arrivalSpeed="14.96" duration="27.90" routeLength="394.90" waitingTime="0.00" waitingCount="0" stopTime="0.00" timeLoss="1.53" rerouteNo="0" devices="tripinfo_main_flow.22" vType="HDV" speedFactor="1.20" vaporized=""/>
    <tripinfo id="main_flow.23" depart="84.70" departLane="wm_0" departPos="5.10" departSpeed="11.97" departDelay="0.00" arrival="118.00" arrivalLane="ce_0" arrivalPos="196.00" arrivalSpeed="11.85" duration="33.30" routeLength="394.90" waitingTime="0.00" waitingCount="0" stopTime="0.00" timeLoss="0.23" rerouteNo="0" devices="tripinfo_main_flow.23" vType="HDV" speedFactor="0.80" vaporized=""/>
    <tripinfo id="main_flow.24" depart="86.70" departLane="wm_0" departPos="5.10" departSpeed="12.42" departDelay="0.00" arrival="119.60" arrivalLane="ce_0" arrivalPos="196.00" arrivalSpeed="13.85" duration="32.90" routeLength="394.90" waitingTime="0.00" waitingCount="0" stopTime="0.00" timeLoss="4.37" rerouteNo="0" devices="tripinfo_main_flow.24" vType="HDV" speedFactor="0.92" vaporized=""/>
    <tripinfo id="main_flow.25" depart="88.10" departLane="wm_0" departPos="5.10" departSpeed="13.92" departDelay="0.00" arrival="120.50" arrivalLane="ce_0" arrivalPos="196.00" arrivalSpeed="15.00" duration="32.40" routeLength="394.90" waitingTime="0.00" waitingCount="0" stopTime="0.00" timeLoss="6.03" rerouteNo="0" devices="tripinfo_main_flow.25" vType="CAV" speedFactor="1.00" vaporized=""/>
    <tripinfo id="main_flow.26" depart="91.30" departLane="wm_0" departPos="5.10" departSpeed="14.94" departDelay="0.00" arrival="122.10" arrivalLane="ce_0" arrivalPos="196.00" arrivalSpeed="14.87" duration="30.80" routeLength="394.90" waitingTime="0.00" waitingCount="0" stopTime="0.00" timeLoss="4.29" rerouteNo="0" devices="tripinfo_main_flow.26" vType="HDV" speedFactor="1.00" vaporized=""/>
    <tripinfo id="ramp_flow.22" depart="92.20" departLane="rm_0" departPos="5.10" departSpeed="10.00" departDelay="0.00" arrival="123.70" arrivalLane="ce_0" arrivalPos="196.00" arrivalSpeed="14.48" duration="31.50" routeLength="405.14" waitingTime="0.00" waitingCount="0" stopTime="0.00" timeLoss="3.61" rerouteNo="0" devices="tripinfo_ramp_flow.22" vType="HDV" speedFactor="0.97" vaporized=""/>
    <tripinfo id="ramp_flow.23" depart="93.00" departLane="rm_0" departPos="5.10" departSpeed="10.00" departDelay="0.70" arrival="124.60" arrivalLane="ce_0" arrivalPos="196.00" arrivalSpeed="15.00" duration="31.60" routeLength="405.14" waitingTime="0.00" waitingCount="0" stopTime="0.00" timeLoss="4.45" rerouteNo="0" devices="tripinfo_ramp_flow.23" vType="CAV" speedFactor="0.96" vaporized=""/>
    <tripinfo id="main_flow.27" depart="97.40" departLane="wm_0" departPos="5.10" departSpeed="15.00" departDelay="0.00" arrival="125.50" arrivalLane="ce_0" arrivalPos="196.00" arrivalSpeed="14.50" duration="28.10" routeLength="394.90" waitingTime="0.00" waitingCount="0" stopTime="0.00" timeLoss="1.69" rerouteNo="0" devices="tripinfo_main_flow.27" vType="CAV" speedFactor="0.95" vaporized=""/>
    <tripinfo id="ramp_flow.24" depart="97.10" departLane="rm_0" departPos="5.10" departSpeed="10.00" departDelay="0.00" arrival="126.50" arrivalLane="ce_0" arrivalPos="196.00" arrivalSpeed="15.00" duration="29.40" routeLength="405.14" waitingTime="0.00" waitingCount="0" stopTime="0.00" timeLoss="2.19" rerouteNo="0" devices="tripinfo_ramp_flow.24" vType="CAV" speedFactor="0.91" vaporized=""/>
    <tripinfo id="ramp_flow.25" depart="98.40" departLane="rm_0" departPos="5.10" departSpeed="10.00" departDelay="0.00" arrival="127.50" arrivalLane="ce_0" arrivalPos="196.00" arrivalSpeed="15.00" duration="29.10" routeLength="405.14" waitingTime="0.00" waitingCount="0" stopTime="0.00" timeLoss="1.98" rerouteNo="0" devices="tripinfo_ramp_flow.25" vType="CAV" speedFactor="1.02" vaporized=""/>
    <tripinfo id="main_flow.28" depart="103.50" departLane="wm_0" departPos="5.10" departSpeed="12.84" departDelay="0.00" arrival="134.50" arrivalLane="ce_0" arrivalPos="196.00" arrivalSpeed="12.82" duration="31.00" routeLength="394.90" waitingTime="0.00" waitingCount="0" stopTime="0.00" timeLoss="0.21" rerouteNo="0" devices="tripinfo_main_flow.28" vType="HDV" speedFactor="0.86" vaporized=""/>
    <tripinfo id="main_flow.29" depart="104.00" departLane="wm_0" departPos="5.10" departSpeed="10.74" departDelay="0.40" arrival="135.40" arrivalLane="ce_0" arrivalPos="196.00" arrivalSpeed="14.67" duration="31.40" routeLength="394.90" waitingTime="0.00" waitingCount="0" stopTime="0.00" timeLoss="5.02" rerouteNo="0" devices="tripinfo_main_flow.29" vType="CAV" speedFactor="1.06" vaporized=""/>
    <tripinfo id="main_flow.30" depart="104.60" departLane="wm_0" departPos="5.10" departSpeed="9.04" departDelay="0.50" arrival="136.30" arrivalLane="ce_0" arrivalPos="196.00" arrivalSpeed="15.00" duration="31.70" routeLength="394.90" waitingTime="0.00" waitingCount="0" stopTime="0.00" timeLoss="5.29" rerouteNo="0" devices="tripinfo_main_flow.30" vType="CAV" speedFactor="1.12" vaporized=""/>
    <tripinfo id="main_flow.31" depart="106.70" departLane="wm_0" departPos="5.10" departSpeed="14.07" departDelay="0.00" arrival="137.10" arrivalLane="ce_0" arrivalPos="196.00" arrivalSpeed="15.00" duration="30.40" routeLength="394.90" waitingTime="0.00" waitingCount="0" stopTime="0.00" timeLoss="4.05" rerouteNo="0" devices="tripinfo_main_flow.31" vType="CAV" speedFactor="0.92" vaporized=""/>
    <tripinfo id="main_flow.32" depart="108.00" departLane="wm_0" departPos="5.10" departSpeed="11.86" departDelay="0.00" arrival="141.40" arrivalLane="ce_0" arrivalPos="196.00" arrivalSpeed="11.79" duration="33.40" routeLength="394.90" waitingTime="0.00" waitingCount="0" stopTime="0.00" timeLoss="0.27" rerouteNo="0" devices="tripinfo_main_flow.32" vType="HDV" speedFactor="0.80" vaporized=""/>
    <tripinfo id="main_flow.33" depart="108.50" departLane="wm_0" departPos="5.10" departSpeed="9.42" departDelay="0.20" arrival="142.40" arrivalLane="ce_0" arrivalPos="196.00" arrivalSpeed="12.49" duration="33.90" routeLength="394.90" waitingTime="0.00" waitingCount="0" stopTime="0.00" timeLoss="7.51" rerouteNo="0" devices="tripinfo_main_flow.33" vType="CAV" speedFactor="1.02" vaporized=""/>
    <tripinfo id="main_flow.34" depart="109.40" departLane="wm_0" departPos="5.10" departSpeed="9.43" departDelay="0.00" arrival="143.30" arrivalLane="ce_0" arrivalPos="196.00" arrivalSpeed="13.98" duration="33.90" routeLength="394.90" waitingTime="0.00" waitingCount="0" stopTime="0.00" timeLoss="7.49" rerouteNo="0" devices="tripinfo_main_flow.34" vType="CAV" speedFactor="1.08" vaporized=""/>
    <tripinfo id="main_flow.35" depart="110.20" departLane="wm_0" departPos="5.10" departSpeed="5.13" departDelay="0.10" arrival="144.90" arrivalLane="ce_0" arrivalPos="196.00" arrivalSpeed="14.19" duration="34.70" routeLength="394.90" waitingTime="0.00" waitingCount="0" stopTime="0.00" timeLoss="6.97" rerouteNo="0" devices="tripinfo_main_flow.35" vType="HDV" speedFactor="0.95" vaporized=""/>
    <tripinfo id="ramp_flow.28" depart="115.30" departLane="rm_0" departPos="5.10" departSpeed="10.00" departDelay="0.00" arrival="146.50" arrivalLane="ce_0" arrivalPos="196.00" arrivalSpeed="14.34" duration="31.20" routeLength="405.14" waitingTime="0.00" waitingCount="0" stopTime="0.00" timeLoss="2.91" rerouteNo="0" devices="tripinfo_ramp_flow.28" vType="HDV" speedFactor="0.96" vaporized=""/>
    <tripinfo id="ramp_flow.5" depart="16.80" departLane="rm_0" departPos="5.10" departSpeed="10.00" departDelay="1.30" arrival="149.80" arrivalLane="ce_0" arrivalPos="196.00" arrivalSpeed="12.71" duration="133.00" routeLength="405.14" waitingTime="72.70" waitingCount="11" stopTime="0.00" timeLoss="101.26" rerouteNo="0" devices="tripinfo_ramp_flow.5" vType="HDV" speedFactor="0.85" vaporized=""/>
    <tripinfo id="ramp_flow.17" depart="70.20" departLane="rm_0" departPos="5.10" departSpeed="10.00" departDelay="0.00" arrival="153.10" arrivalLane="ce_0" arrivalPos="196.00" arrivalSpeed="11.22" duration="82.90" routeLength="405.14" waitingTime="31.80" waitingCount="5" stopTime="0.00" timeLoss="46.86" rerouteNo="0" devices="tripinfo_ramp_flow.17" vType="HDV" speedFactor="0.75" vaporized=""/>
    <tripinfo id="ramp_flow.18" depart="71.00" departLane="rm_0" departPos="5.10" departSpeed="10.00" departDelay="0.10" arrival="154.10" arrivalLane="ce_0" arrivalPos="196.00" arrivalSpeed="11.96" duration="83.10" routeLength="405.14" waitingTime="30.40" waitingCount="9" stopTime="0.00" timeLoss="56.01" rerouteNo="0" devices="tripinfo_ramp_flow.18" vType="CAV" speedFactor="1.06" vaporized=""/>
    <tripinfo id="ramp_flow.20" depart="87.50" departLane="rm_0" departPos="5.10" departSpeed="10.00" departDelay="0.00" arrival="155.00" arrivalLane="ce_0" arrivalPos="196.00" arrivalSpeed="12.79" duration="67.50" routeLength="405.14" waitingTime="28.40" waitingCount="4" stopTime="0.00" timeLoss="40.38" rerouteNo="0" devices="tripinfo_ramp_flow.20" vType="CAV" speedFactor="1.02" vaporized=""/>
    <tripinfo id="ramp_flow.21" depart="88.90" departLane="rm_0" departPos="5.10" departSpeed="10.00" departDelay="0.00" arrival="156.00" arrivalLane="ce_0" arrivalPos="196.00" arrivalSpeed="13.70" duration="67.10" routeLength="405.14" waitingTime="26.90" waitingCount="3" stopTime="0.00" timeLoss="39.95" rerouteNo="0" devices="tripinfo_ramp_flow.21" vType="CAV" speedFactor="1.12" vaporized=""/>
    <tripinfo id="main_flow.36" depart="122.00" departLane="wm_0" departPos="5.10" departSpeed="15.00" departDelay="0.00" arrival="156.90" arrivalLane="ce_0" arrivalPos="196.00" arrivalSpeed="12.82" duration="34.90" routeLength="394.90" waitingTime="0.00" waitingCount="0" stopTime="0.00" timeLoss="8.52" rerouteNo="0" devices="tripinfo_main_flow.36" vType="CAV" speedFactor="1.01" vaporized=""/>
    <tripinfo id="ramp_flow.27" depart="107.80" departLane="rm_0" departPos="5.10" departSpeed="10.00" departDelay="0.00" arrival="157.80" arrivalLane="ce_0" arrivalPos="196.00" arrivalSpeed="15.00" duration="50.00" routeLength="405.14" waitingTime="3.40" waitingCount="3" stopTime="0.00" timeLoss="22.93" rerouteNo="0" devices="tripinfo_ramp_flow.27" vType="CAV" speedFactor="1.09" vaporized=""/>
    <tripinfo id="ramp_flow.26" depart="104.60" departLane="rm_0" departPos="5.10" departSpeed="10.00" departDelay="0.00" arrival="159.50" arrivalLane="ce_0" arrivalPos="196.00" arrivalSpeed="14.80" duration="54.90" routeLength="405.14" waitingTime="14.00" waitingCount="4" stopTime="0.00" timeLoss="27.78" rerouteNo="0" devices="tripinfo_ramp_flow.26" vType="CAV" speedFactor="1.03" vaporized=""/>
    <tripinfo id="main_flow.37" depart="133.30" departLane="wm_0" departPos="5.10" departSpeed="15.00" departDelay="0.00" arrival="160.50" arrivalLane="ce_0" arrivalPos="196.00" arrivalSpeed="15.00" duration="27.20" routeLength="394.90" waitingTime="0.00" waitingCount="0" stopTime="0.00" timeLoss="0.82" rerouteNo="0" devices="tripinfo_main_flow.37" vType="CAV" speedFactor="1.05" vaporized=""/>
    <tripinfo id="main_flow.38" depart="134.00" departLane="wm_0" departPos="5.10" departSpeed="14.15" departDelay="0.00" arrival="161.40" arrivalLane="ce_0" arrivalPos="196.00" arrivalSpeed="14.50" duration="27.40" routeLength="394.90" waitingTime="0.00" waitingCount="0" stopTime="0.00" timeLoss="1.06" rerouteNo="0" devices="tripinfo_main_flow.38" vType="CAV" speedFactor="1.06" vaporized=""/>
    <tripinfo id="ramp_flow.30" depart="133.00" departLane="rm_0" departPos="5.10" departSpeed="10.00" departDelay="0.30" arrival="164.00" arrivalLane="ce_0" arrivalPos="196.00" arrivalSpeed="15.00" duration="31.00" routeLength="405.14" waitingTime="0.00" waitingCount="0" stopTime="0.00" timeLoss="3.85" rerouteNo="0" devices="tripinfo_ramp_flow.30" vType="CAV" speedFactor="0.83" vaporized=""/>
    <tripinfo id="main_flow.39" depart="137.20" departLane="wm_0" departPos="5.10" departSpeed="15.00" departDelay="0.00" arrival="165.00" arrivalLane="ce_0" arrivalPos="196.00" arrivalSpeed="14.00" duration="27.80" routeLength="394.90" waitingTime="0.00" waitingCount="0" stopTime="0.00" timeLoss="1.42" rerouteNo="0" devices="tripinfo_main_flow.39" vType="CAV" speedFactor="0.86" vaporized=""/>
    <tripinfo id="ramp_flow.29" depart="132.20" departLane="rm_0" departPos="5.10" departSpeed="10.00" departDelay="0.00" arrival="169.50" arrivalLane="ce_0" arrivalPos="196.00" arrivalSpeed="13.13" duration="37.30" routeLength="405.14" waitingTime="0.80" waitingCount="2" stopTime="0.00" timeLoss="6.67" rerouteNo="0" devices="tripinfo_ramp_flow.29" vType="HDV" speedFactor="0.89" vaporized=""/>