<?xml version="1.0" encoding="UTF-8"?>

<!-- generated on 2025-03-10 22:17:47 by Eclipse SUMO sumo Version 1.21.0
<sumoConfiguration xmlns:xsi="http://www.w3.org/2001/XMLSchema-instance" xsi:noNamespaceSchemaLocation="http://sumo.dlr.de/xsd/sumoConfiguration.xsd">

    <input>
        <net-file value="c:\Users\18576\Sumo\target_model\input_sources\highway_merge.net.xml"/>
        <route-files value="c:\Users\18576\Sumo\target_model\input_sources\routes.rou.xml"/>
    </input>

    <output>
        <tripinfo-output value="c:\Users\18576\Sumo\target_model\input_sources\tripinfo.xml"/>
    </output>

    <time>
        <begin value="0"/>
        <end value="5000"/>
        <step-length value="0.1"/>
    </time>

    <processing>
        <extrapolate-departpos value="true"/>
        <route-steps value="100"/>
        <ignore-route-errors value="true"/>
        <collision.action value="warn"/>
        <collision.stoptime value="1"/>
        <collision.mingap-factor value="0.1"/>
        <time-to-teleport value="-1"/>
    </processing>

    <report>
        <verbose value="true"/>
        <log value="c:\Users\18576\Sumo\target_model\input_sources\simulation.log"/>
        <no-step-log value="false"/>
    </report>

    <traci_server>
        <remote-port value="24862"/>
    </traci_server>

    <gui_only>
        <quit-on-end value="true"/>
        <start value="false"/>
    </gui_only>

</sumoConfiguration>
-->

<tripinfos xmlns:xsi="http://www.w3.org/2001/XMLSchema-instance" xsi:noNamespaceSchemaLocation="http://sumo.dlr.de/xsd/tripinfo_file.xsd">
    <tripinfo id="main_4" depart="4.00" departLane="wm_0" departPos="5.10" departSpeed="58.39" departDelay="0.00" arrival="10.60" arrivalLane="ce_0" arrivalPos="196.00" arrivalSpeed="59.85" duration="6.60" routeLength="394.90" waitingTime="0.00" waitingCount="0" stopTime="0.00" timeLoss="0.02" rerouteNo="0" devices="tripinfo_main_4" vType="HDV" speedFactor="1.12" vaporized=""/>
    <tripinfo id="main_6" depart="6.00" departLane="wm_0" departPos="5.10" departSpeed="49.75" departDelay="0.00" arrival="13.00" arrivalLane="ce_0" arrivalPos="196.00" arrivalSpeed="59.88" duration="7.00" routeLength="394.90" waitingTime="0.00" waitingCount="0" stopTime="0.00" timeLoss="0.36" rerouteNo="0" devices="tripinfo_main_6" vType="HDV" speedFactor="1.17" vaporized=""/>
    <tripinfo id="main_7" depart="7.00" departLane="wm_0" departPos="5.10" departSpeed="50.49" departDelay="0.00" arrival="14.00" arrivalLane="ce_0" arrivalPos="196.00" arrivalSpeed="59.98" duration="7.00" routeLength="394.90" waitingTime="0.00" waitingCount="0" stopTime="0.00" timeLoss="0.40" rerouteNo="0" devices="tripinfo_main_7" vType="HDV" speedFactor="1.06" vaporized=""/>
    <tripinfo id="main_9" depart="9.00" departLane="wm_0" departPos="5.10" departSpeed="54.21" departDelay="0.00" arrival="15.80" arrivalLane="ce_0" arrivalPos="196.00" arrivalSpeed="59.93" duration="6.80" routeLength="394.90" waitingTime="0.00" waitingCount="0" stopTime="0.00" timeLoss="0.13" rerouteNo="0" devices="tripinfo_main_9" vType="HDV" speedFactor="1.09" vaporized=""/>
    <tripinfo id="ramp_7" depart="7.00" departLane="rm_0" departPos="5.10" departSpeed="0.00" departDelay="0.00" arrival="28.00" arrivalLane="ce_0" arrivalPos="196.00" arrivalSpeed="43.64" duration="21.00" routeLength="405.14" waitingTime="0.00" waitingCount="0" stopTime="0.00" timeLoss="13.76" rerouteNo="0" devices="tripinfo_ramp_7" vType="CAV" speedFactor="0.83" vaporized=""/>
    <tripinfo id="main_10" depart="10.00" departLane="wm_0" departPos="5.10" departSpeed="0.00" departDelay="0.00" arrival="28.50" arrivalLane="ce_0" arrivalPos="196.00" arrivalSpeed="44.32" duration="18.50" routeLength="394.90" waitingTime="0.00" waitingCount="0" stopTime="0.00" timeLoss="11.88" rerouteNo="0" devices="tripinfo_main_10" vType="CAV" speedFactor="0.94" vaporized=""/>
    <tripinfo id="ramp_11" depart="11.00" departLane="rm_0" departPos="5.10" departSpeed="0.00" departDelay="0.00" arrival="31.90" arrivalLane="ce_0" arrivalPos="196.00" arrivalSpeed="43.61" duration="20.90" routeLength="405.14" waitingTime="0.00" waitingCount="0" stopTime="0.00" timeLoss="13.68" rerouteNo="0" devices="tripinfo_ramp_11" vType="CAV" speedFactor="0.86" vaporized=""/>
    <tripinfo id="main_12" depart="29.60" departLane="wm_0" departPos="5.10" departSpeed="59.84" departDelay="17.60" arrival="36.20" arrivalLane="ce_0" arrivalPos="196.00" arrivalSpeed="59.87" duration="6.60" routeLength="394.90" waitingTime="0.00" waitingCount="0" stopTime="0.00" timeLoss="0.01" rerouteNo="0" devices="tripinfo_main_12" vType="HDV" speedFactor="1.18" vaporized=""/>
    <tripinfo id="main_14" depart="30.70" departLane="wm_0" departPos="5.10" departSpeed="58.58" departDelay="16.70" arrival="37.30" arrivalLane="ce_0" arrivalPos="196.00" arrivalSpeed="59.93" duration="6.60" routeLength="394.90" waitingTime="0.00" waitingCount="0" stopTime="0.00" timeLoss="0.11" rerouteNo="0" devices="tripinfo_main_14" vType="HDV" speedFactor="1.09" vaporized=""/>
    <tripinfo id="main_15" depart="31.90" departLane="wm_0" departPos="5.10" departSpeed="58.18" departDelay="16.90" arrival="38.60" arrivalLane="ce_0" arrivalPos="196.00" arrivalSpeed="58.89" duration="6.70" routeLength="394.90" waitingTime="0.00" waitingCount="0" stopTime="0.00" timeLoss="0.04" rerouteNo="0" devices="tripinfo_main_15" vType="HDV" speedFactor="0.98" vaporized=""/>
    <tripinfo id="main_16" depart="32.60" departLane="wm_0" departPos="5.10" departSpeed="55.32" departDelay="16.60" arrival="39.60" arrivalLane="ce_0" arrivalPos="196.00" arrivalSpeed="59.50" duration="7.00" routeLength="394.90" waitingTime="0.00" waitingCount="0" stopTime="0.00" timeLoss="0.40" rerouteNo="0" devices="tripinfo_main_16" vType="HDV" speedFactor="1.02" vaporized=""/>
    <tripinfo id="main_19" depart="34.00" departLane="wm_0" departPos="5.10" departSpeed="55.95" departDelay="15.00" arrival="40.90" arrivalLane="ce_0" arrivalPos="196.00" arrivalSpeed="59.97" duration="6.90" routeLength="394.90" waitingTime="0.00" waitingCount="0" stopTime="0.00" timeLoss="0.31" rerouteNo="0" devices="tripinfo_main_19" vType="HDV" speedFactor="1.06" vaporized=""/>
    <tripinfo id="ramp_27" depart="27.00" departLane="rm_0" departPos="5.10" departSpeed="0.00" departDelay="0.00" arrival="48.00" arrivalLane="ce_0" arrivalPos="196.00" arrivalSpeed="43.59" duration="21.00" routeLength="405.14" waitingTime="0.00" waitingCount="0" stopTime="0.00" timeLoss="13.77" rerouteNo="0" devices="tripinfo_ramp_27" vType="CAV" speedFactor="0.83" vaporized=""/>
    <tripinfo id="ramp_29" depart="29.00" departLane="rm_0" departPos="5.10" departSpeed="0.00" departDelay="0.00" arrival="49.80" arrivalLane="ce_0" arrivalPos="196.00" arrivalSpeed="43.63" duration="20.80" routeLength="405.14" waitingTime="0.00" waitingCount="0" stopTime="0.00" timeLoss="13.70" rerouteNo="0" devices="tripinfo_ramp_29" vType="CAV" speedFactor="0.92" vaporized=""/>
    <tripinfo id="ramp_31" depart="31.00" departLane="rm_0" departPos="5.10" departSpeed="0.00" departDelay="0.00" arrival="51.70" arrivalLane="ce_0" arrivalPos="196.00" arrivalSpeed="43.95" duration="20.70" routeLength="405.14" waitingTime="0.00" waitingCount="0" stopTime="0.00" timeLoss="13.63" rerouteNo="0" devices="tripinfo_ramp_31" vType="CAV" speedFactor="0.95" vaporized=""/>
    <tripinfo id="main_20" depart="34.10" departLane="wm_0" departPos="5.10" departSpeed="0.00" departDelay="14.10" arrival="52.20" arrivalLane="ce_0" arrivalPos="196.00" arrivalSpeed="44.69" duration="18.10" routeLength="394.90" waitingTime="0.00" waitingCount="0" stopTime="0.00" timeLoss="11.48" rerouteNo="0" devices="tripinfo_main_20" vType="CAV" speedFactor="0.94" vaporized=""/>
    <tripinfo id="main_22" depart="36.10" departLane="wm_0" departPos="5.10" departSpeed="0.00" departDelay="14.10" arrival="52.80" arrivalLane="ce_0" arrivalPos="196.00" arrivalSpeed="46.08" duration="16.70" routeLength="394.90" waitingTime="0.00" waitingCount="0" stopTime="0.00" timeLoss="10.08" rerouteNo="0" devices="tripinfo_main_22" vType="CAV" speedFactor="1.02" vaporized=""/>
    <tripinfo id="main_25" depart="48.50" departLane="wm_0" departPos="5.10" departSpeed="51.99" departDelay="23.50" arrival="55.70" arrivalLane="ce_0" arrivalPos="196.00" arrivalSpeed="59.90" duration="7.20" routeLength="394.90" waitingTime="0.00" waitingCount="0" stopTime="0.00" timeLoss="0.59" rerouteNo="0" devices="tripinfo_main_25" vType="HDV" speedFactor="1.02" vaporized=""/>
    <tripinfo id="ramp_44" depart="44.00" departLane="rm_0" departPos="5.10" departSpeed="0.00" departDelay="0.00" arrival="63.60" arrivalLane="ce_0" arrivalPos="196.00" arrivalSpeed="44.53" duration="19.60" routeLength="405.14" waitingTime="0.00" waitingCount="0" stopTime="0.00" timeLoss="12.54" rerouteNo="0" devices="tripinfo_ramp_44" vType="CAV" speedFactor="1.18" vaporized=""/>
    <tripinfo id="main_27" depart="48.60" departLane="wm_0" departPos="5.10" departSpeed="0.00" departDelay="21.60" arrival="64.80" arrivalLane="ce_0" arrivalPos="196.00" arrivalSpeed="48.60" duration="16.20" routeLength="394.90" waitingTime="0.00" waitingCount="0" stopTime="0.00" timeLoss="9.60" rerouteNo="0" devices="tripinfo_main_27" vType="CAV" speedFactor="0.89" vaporized=""/>
    <tripinfo id="main_32" depart="60.30" departLane="wm_0" departPos="5.10" departSpeed="51.19" departDelay="28.30" arrival="67.50" arrivalLane="ce_0" arrivalPos="196.00" arrivalSpeed="59.91" duration="7.20" routeLength="394.90" waitingTime="0.00" waitingCount="0" stopTime="0.00" timeLoss="0.56" rerouteNo="0" devices="tripinfo_main_32" vType="HDV" speedFactor="1.26" vaporized=""/>
    <tripinfo id="main_34" depart="60.50" departLane="wm_0" departPos="5.10" departSpeed="0.00" departDelay="26.50" arrival="76.70" arrivalLane="ce_0" arrivalPos="196.00" arrivalSpeed="48.60" duration="16.20" routeLength="394.90" waitingTime="0.00" waitingCount="0" stopTime="0.00" timeLoss="9.60" rerouteNo="0" devices="tripinfo_main_34" vType="CAV" speedFactor="0.93" vaporized=""/>
    <tripinfo id="main_39" depart="72.00" departLane="wm_0" departPos="5.10" departSpeed="49.77" departDelay="33.00" arrival="79.20" arrivalLane="ce_0" arrivalPos="196.00" arrivalSpeed="59.92" duration="7.20" routeLength="394.90" waitingTime="0.00" waitingCount="0" stopTime="0.00" timeLoss="0.70" rerouteNo="0" devices="tripinfo_main_39" vType="HDV" speedFactor="1.01" vaporized=""/>
    <tripinfo id="main_41" depart="72.10" departLane="wm_0" departPos="5.10" departSpeed="0.00" departDelay="31.10" arrival="88.30" arrivalLane="ce_0" arrivalPos="196.00" arrivalSpeed="48.60" duration="16.20" routeLength="394.90" waitingTime="0.00" waitingCount="0" stopTime="0.00" timeLoss="9.60" rerouteNo="0" devices="tripinfo_main_41" vType="CAV" speedFactor="1.17" vaporized=""/>
    <tripinfo id="main_43" depart="85.60" departLane="wm_0" departPos="5.10" departSpeed="59.96" departDelay="42.60" arrival="92.20" arrivalLane="ce_0" arrivalPos="196.00" arrivalSpeed="59.95" duration="6.60" routeLength="394.90" waitingTime="0.00" waitingCount="0" stopTime="0.00" timeLoss="0.01" rerouteNo="0" devices="tripinfo_main_43" vType="HDV" speedFactor="1.00" vaporized=""/>
    <tripinfo id="main_45" depart="85.80" departLane="wm_0" departPos="5.10" departSpeed="52.86" departDelay="40.80" arrival="92.90" arrivalLane="ce_0" arrivalPos="196.00" arrivalSpeed="58.01" duration="7.10" routeLength="394.90" waitingTime="0.00" waitingCount="0" stopTime="0.00" timeLoss="0.52" rerouteNo="0" devices="tripinfo_main_45" vType="HDV" speedFactor="1.20" vaporized=""/>
    <tripinfo id="main_47" depart="86.60" departLane="wm_0" departPos="5.10" departSpeed="51.81" departDelay="39.60" arrival="94.10" arrivalLane="ce_0" arrivalPos="196.00" arrivalSpeed="52.47" duration="7.50" routeLength="394.90" waitingTime="0.00" waitingCount="0" stopTime="0.00" timeLoss="0.02" rerouteNo="0" devices="tripinfo_main_47" vType="HDV" speedFactor="0.88" vaporized=""/>
    <tripinfo id="main_49" depart="89.30" departLane="wm_0" departPos="5.10" departSpeed="58.52" departDelay="40.30" arrival="96.20" arrivalLane="ce_0" arrivalPos="196.00" arrivalSpeed="58.48" duration="6.90" routeLength="394.90" waitingTime="0.00" waitingCount="0" stopTime="0.00" timeLoss="0.10" rerouteNo="0" devices="tripinfo_main_49" vType="HDV" speedFactor="0.98" vaporized=""/>
</tripinfos>
